TACC:  Starting up job 5405585 
TACC:  Starting parallel tasks... 

     Program PWSCF v.7.0 starts on 19Apr2023 at 22:28:18 

     This program is part of the open-source Quantum ESPRESSO suite
     for quantum simulation of materials; please cite
         "P. Giannozzi et al., J. Phys.:Condens. Matter 21 395502 (2009);
         "P. Giannozzi et al., J. Phys.:Condens. Matter 29 465901 (2017);
         "P. Giannozzi et al., J. Chem. Phys. 152 154105 (2020);
          URL http://www.quantum-espresso.org", 
     in publications or presentations arising from this work. More details at
     http://www.quantum-espresso.org/quote

     Parallel version (MPI & OpenMP), running on     216 processor cores
     Number of MPI processes:               216
     Threads/MPI process:                     1

     MPI processes distributed on     4 nodes
     K-points division:     npool     =       9
     R & G space division:  proc/nbgrp/npool/nimage =      24
     177841 MiB available memory on the printing compute node when the environment starts
 
     Reading input from wfn.in

     Current dimensions of program PWSCF are:
     Max number of different atomic species (ntypx) = 10
     Max number of k-points (npk) =  40000
     Max angular momentum in pseudopotentials (lmaxx) =  4
     Found identity + (  0.2857  0.1429  0.0000) symmetry
     This is a supercell, fractional translations are disabled

     Subspace diagonalization in iterative solution of the eigenvalue problem:
     one sub-group per band group will be used
     ELPA distributed-memory algorithm (size of sub-group:  4*  4 procs)

 
     Parallelization info
     --------------------
     sticks:   dense  smooth     PW     G-vecs:    dense   smooth      PW
     Min          57      57     15                 5107     5107     765
     Max          58      58     16                 5120     5120     784
     Sum        1369    1369    379               122595   122595   18629
 
     Using Slab Decomposition
 


     bravais-lattice index     =            0
     lattice parameter (alat)  =      15.7492  a.u.
     unit-cell volume          =   10148.1386 (a.u.)^3
     number of atoms/cell      =           21
     number of atomic types    =            2
     number of electrons       =       182.00
     number of Kohn-Sham states=          182
     kinetic-energy cutoff     =      20.0000  Ry
     charge density cutoff     =      80.0000  Ry
     scf convergence threshold =      1.0E-06
     mixing beta               =       0.3000
     number of iterations used =            8  plain     mixing
     Exchange-correlation= PBE
                           (   1   4   3   4   0   0   0)

     celldm(1)=  15.749198  celldm(2)=   0.000000  celldm(3)=   0.000000
     celldm(4)=   0.000000  celldm(5)=   0.000000  celldm(6)=   0.000000

     crystal axes: (cart. coord. in units of alat)
               a(1) = (   0.755929   0.654654   0.000000 )  
               a(2) = (  -0.188982   0.981981   0.000000 )  
               a(3) = (   0.000000   0.000000   2.999718 )  

     reciprocal axes: (cart. coord. in units 2 pi/alat)
               b(1) = (  1.133893  0.218218  0.000000 )  
               b(2) = ( -0.755929  0.872872  0.000000 )  
               b(3) = (  0.000000  0.000000  0.333365 )  


     PseudoPot. # 1 for W  read from file:
     /work2/08702/wkim94/frontera/pseudo/pseudodojo/nc-sr-04_pbe_standard_upf/W.upf
     MD5 check sum: cb94e439a9e4ea809831d6e90c63864e
     Pseudo is Norm-conserving + core correction, Zval = 14.0
     Generated using ONCVPSP code by D. R. Hamann
     Using radial grid of 1396 points,  8 beta functions with: 
                l(1) =   0
                l(2) =   0
                l(3) =   1
                l(4) =   1
                l(5) =   2
                l(6) =   2
                l(7) =   3
                l(8) =   3

     PseudoPot. # 2 for S  read from file:
     /work2/08702/wkim94/frontera/pseudo/pseudodojo/nc-sr-04_pbe_standard_upf/S.upf
     MD5 check sum: 6027e7704d67ae28863b2247926ce6f3
     Pseudo is Norm-conserving + core correction, Zval =  6.0
     Generated using ONCVPSP code by D. R. Hamann
     Using radial grid of 1146 points,  6 beta functions with: 
                l(1) =   0
                l(2) =   0
                l(3) =   1
                l(4) =   1
                l(5) =   2
                l(6) =   2

     atomic species   valence    mass     pseudopotential
        W             14.00   183.84000     W ( 1.00)
        S              6.00    78.96000     S ( 1.00)

     No symmetry found


                                    s                        frac. trans.

      isym =  1     identity                                     

 cryst.   s( 1) = (     1          0          0      )
                  (     0          1          0      )
                  (     0          0          1      )

 cart.    s( 1) = (  1.0000000  0.0000000  0.0000000 )
                  (  0.0000000  1.0000000  0.0000000 )
                  (  0.0000000  0.0000000  1.0000000 )


   Cartesian axes

     site n.     atom                  positions (alat units)
         1           W   tau(   1) = (   0.1889822   0.7637626   1.4998590  )
         2           W   tau(   2) = (   0.3779645   1.0910895   1.4998590  )
         3           W   tau(   3) = (   0.5669467   1.4184163   1.4998590  )
         4           W   tau(   4) = (  -0.0000000   1.0910895   1.4998590  )
         5           W   tau(   5) = (   0.3779645   0.4364358   1.4998590  )
         6           W   tau(   6) = (   0.5669467   0.7637626   1.4998590  )
         7           W   tau(   7) = (   0.0000000   0.4364358   1.4998590  )
         8           S   tau(   8) = (   0.3779645   0.8728716   1.3078771  )
         9           S   tau(   9) = (   0.5669467   1.2001984   1.3078771  )
        10           S   tau(  10) = (  -0.0000000   0.8728716   1.3078771  )
        11           S   tau(  11) = (   0.1889822   1.2001984   1.3078771  )
        12           S   tau(  12) = (   0.5669467   0.5455447   1.3078771  )
        13           S   tau(  13) = (   0.0000000   0.2182179   1.3078771  )
        14           S   tau(  14) = (   0.1889822   0.5455447   1.3078771  )
        15           S   tau(  15) = (   0.3779645   0.8728716   1.6918410  )
        16           S   tau(  16) = (   0.5669467   1.2001984   1.6918410  )
        17           S   tau(  17) = (  -0.0000000   0.8728716   1.6918410  )
        18           S   tau(  18) = (   0.1889822   1.2001984   1.6918410  )
        19           S   tau(  19) = (   0.5669467   0.5455447   1.6918410  )
        20           S   tau(  20) = (   0.0000000   0.2182179   1.6918410  )
        21           S   tau(  21) = (   0.1889822   0.5455447   1.6918410  )

   Crystallographic axes

     site n.     atom                  positions (cryst. coord.)
         1           W   tau(   1) = (  0.3809524  0.5238095  0.5000000  )
         2           W   tau(   2) = (  0.6666667  0.6666667  0.5000000  )
         3           W   tau(   3) = (  0.9523810  0.8095238  0.5000000  )
         4           W   tau(   4) = (  0.2380952  0.9523810  0.5000000  )
         5           W   tau(   5) = (  0.5238095  0.0952381  0.5000000  )
         6           W   tau(   6) = (  0.8095238  0.2380952  0.5000000  )
         7           W   tau(   7) = (  0.0952381  0.3809524  0.5000000  )
         8           S   tau(   8) = (  0.6190476  0.4761905  0.4360000  )
         9           S   tau(   9) = (  0.9047619  0.6190476  0.4360000  )
        10           S   tau(  10) = (  0.1904762  0.7619048  0.4360000  )
        11           S   tau(  11) = (  0.4761905  0.9047619  0.4360000  )
        12           S   tau(  12) = (  0.7619048  0.0476190  0.4360000  )
        13           S   tau(  13) = (  0.0476190  0.1904762  0.4360000  )
        14           S   tau(  14) = (  0.3333333  0.3333333  0.4360000  )
        15           S   tau(  15) = (  0.6190476  0.4761905  0.5640000  )
        16           S   tau(  16) = (  0.9047619  0.6190476  0.5640000  )
        17           S   tau(  17) = (  0.1904762  0.7619048  0.5640000  )
        18           S   tau(  18) = (  0.4761905  0.9047619  0.5640000  )
        19           S   tau(  19) = (  0.7619048  0.0476190  0.5640000  )
        20           S   tau(  20) = (  0.0476190  0.1904762  0.5640000  )
        21           S   tau(  21) = (  0.3333333  0.3333333  0.5640000  )

     number of k points=     9
                       cart. coord. in units 2pi/alat
        k(    1) = (   0.0011339   0.0002182   0.0000000), wk =   0.2222222
        k(    2) = (  -0.2508424   0.2911754   0.0000000), wk =   0.2222222
        k(    3) = (  -0.5028187   0.5821326   0.0000000), wk =   0.2222222
        k(    4) = (   0.3790984   0.0729575   0.0000000), wk =   0.2222222
        k(    5) = (   0.1271221   0.3639147   0.0000000), wk =   0.2222222
        k(    6) = (  -0.1248543   0.6548719   0.0000000), wk =   0.2222222
        k(    7) = (   0.7570628   0.1456968   0.0000000), wk =   0.2222222
        k(    8) = (   0.5050865   0.4366540   0.0000000), wk =   0.2222222
        k(    9) = (   0.2531102   0.7276112   0.0000000), wk =   0.2222222

                       cryst. coord.
        k(    1) = (   0.0010000   0.0000000   0.0000000), wk =   0.2222222
        k(    2) = (   0.0010000   0.3333333   0.0000000), wk =   0.2222222
        k(    3) = (   0.0010000   0.6666667   0.0000000), wk =   0.2222222
        k(    4) = (   0.3343333   0.0000000   0.0000000), wk =   0.2222222
        k(    5) = (   0.3343333   0.3333333   0.0000000), wk =   0.2222222
        k(    6) = (   0.3343333   0.6666667   0.0000000), wk =   0.2222222
        k(    7) = (   0.6676667   0.0000000   0.0000000), wk =   0.2222222
        k(    8) = (   0.6676667   0.3333333   0.0000000), wk =   0.2222222
        k(    9) = (   0.6676667   0.6666667   0.0000000), wk =   0.2222222

     Dense  grid:   122595 G-vectors     FFT dimensions: (  45,  45, 135)

     Dynamical RAM for                 wfc:       1.77 MB

     Dynamical RAM for     wfc (w. buffer):       1.77 MB

     Dynamical RAM for           str. fact:       0.16 MB

     Dynamical RAM for           local pot:       0.00 MB

     Dynamical RAM for          nlocal pot:       4.63 MB

     Dynamical RAM for                qrad:       3.45 MB

     Dynamical RAM for          rho,v,vnew:       0.51 MB

     Dynamical RAM for               rhoin:       0.17 MB

     Dynamical RAM for            rho*nmix:       1.25 MB

     Dynamical RAM for           G-vectors:       0.33 MB

     Dynamical RAM for          h,s,v(r/c):       1.52 MB

     Dynamical RAM for          <psi|beta>:       1.32 MB

     Dynamical RAM for                 psi:       7.09 MB

     Dynamical RAM for                hpsi:       7.09 MB

     Dynamical RAM for      wfcinit/wfcrot:       4.30 MB

     Estimated static dynamical RAM per process >      11.73 MB

     Estimated max dynamical RAM per process >      29.99 MB

     Estimated total dynamical RAM >       6.09 GB

     Initial potential from superposition of free atoms

     starting charge     181.9960, renormalised to     182.0000

     negative rho (up, down):  2.135E-01 0.000E+00
     Starting wfcs are  126 randomized atomic wfcs +   56 random wfcs

     total cpu time spent up to now is        0.5 secs

     Self-consistent Calculation

     iteration #  1     ecut=    20.00 Ry     beta= 0.30
     Davidson diagonalization with overlap

---- Real-time Memory Report at c_bands before calling an iterative solver
           187 MiB given to the printing process from OS
             0 MiB allocation reported by mallinfo(arena+hblkhd)
        175709 MiB available memory on the node where the printing process lives
------------------
     ethr =  1.00E-02,  avg # of iterations =  6.8

     Threshold (ethr) on eigenvalues was too large:
     Diagonalizing with lowered threshold

     Davidson diagonalization with overlap

---- Real-time Memory Report at c_bands before calling an iterative solver
           282 MiB given to the printing process from OS
             0 MiB allocation reported by mallinfo(arena+hblkhd)
        174589 MiB available memory on the node where the printing process lives
------------------
     ethr =  6.46E-04,  avg # of iterations =  3.8

     negative rho (up, down):  1.465E-01 0.000E+00

     total cpu time spent up to now is        2.1 secs

     total energy              =   -1367.05383183 Ry
     estimated scf accuracy    <       1.17350346 Ry

     iteration #  2     ecut=    20.00 Ry     beta= 0.30
     Davidson diagonalization with overlap

---- Real-time Memory Report at c_bands before calling an iterative solver
           303 MiB given to the printing process from OS
             0 MiB allocation reported by mallinfo(arena+hblkhd)
        174357 MiB available memory on the node where the printing process lives
------------------
     ethr =  6.45E-04,  avg # of iterations =  2.0

     negative rho (up, down):  1.017E-01 0.000E+00

     total cpu time spent up to now is        2.5 secs

     total energy              =   -1367.10591296 Ry
     estimated scf accuracy    <       0.32009124 Ry

     iteration #  3     ecut=    20.00 Ry     beta= 0.30
     Davidson diagonalization with overlap

---- Real-time Memory Report at c_bands before calling an iterative solver
           312 MiB given to the printing process from OS
             0 MiB allocation reported by mallinfo(arena+hblkhd)
        174170 MiB available memory on the node where the printing process lives
------------------
     ethr =  1.76E-04,  avg # of iterations =  6.2

     negative rho (up, down):  5.380E-02 0.000E+00

     total cpu time spent up to now is        3.1 secs

     total energy              =   -1367.12897629 Ry
     estimated scf accuracy    <       0.11932963 Ry

     iteration #  4     ecut=    20.00 Ry     beta= 0.30
     Davidson diagonalization with overlap

---- Real-time Memory Report at c_bands before calling an iterative solver
           332 MiB given to the printing process from OS
             0 MiB allocation reported by mallinfo(arena+hblkhd)
        173750 MiB available memory on the node where the printing process lives
------------------
     ethr =  6.56E-05,  avg # of iterations =  4.0

     negative rho (up, down):  5.208E-03 0.000E+00

     total cpu time spent up to now is        3.6 secs

     total energy              =   -1367.14162619 Ry
     estimated scf accuracy    <       0.01834534 Ry

     iteration #  5     ecut=    20.00 Ry     beta= 0.30
     Davidson diagonalization with overlap

---- Real-time Memory Report at c_bands before calling an iterative solver
           338 MiB given to the printing process from OS
             0 MiB allocation reported by mallinfo(arena+hblkhd)
        173781 MiB available memory on the node where the printing process lives
------------------
     ethr =  1.01E-05,  avg # of iterations =  7.7

     negative rho (up, down):  8.920E-04 0.000E+00

     total cpu time spent up to now is        4.3 secs

     total energy              =   -1367.14286035 Ry
     estimated scf accuracy    <       0.00078864 Ry

     iteration #  6     ecut=    20.00 Ry     beta= 0.30
     Davidson diagonalization with overlap

---- Real-time Memory Report at c_bands before calling an iterative solver
           368 MiB given to the printing process from OS
             0 MiB allocation reported by mallinfo(arena+hblkhd)
        173477 MiB available memory on the node where the printing process lives
------------------
     ethr =  4.33E-07,  avg # of iterations = 10.9

     negative rho (up, down):  2.994E-06 0.000E+00

     total cpu time spent up to now is        5.6 secs

     total energy              =   -1367.14299629 Ry
     estimated scf accuracy    <       0.00020757 Ry

     iteration #  7     ecut=    20.00 Ry     beta= 0.30
     Davidson diagonalization with overlap

---- Real-time Memory Report at c_bands before calling an iterative solver
           410 MiB given to the printing process from OS
             0 MiB allocation reported by mallinfo(arena+hblkhd)
        173106 MiB available memory on the node where the printing process lives
------------------
     ethr =  1.14E-07,  avg # of iterations =  8.8

     total cpu time spent up to now is        6.6 secs

     total energy              =   -1367.14303919 Ry
     estimated scf accuracy    <       0.00002690 Ry

     iteration #  8     ecut=    20.00 Ry     beta= 0.30
     Davidson diagonalization with overlap

---- Real-time Memory Report at c_bands before calling an iterative solver
           416 MiB given to the printing process from OS
             0 MiB allocation reported by mallinfo(arena+hblkhd)
        173168 MiB available memory on the node where the printing process lives
------------------
     ethr =  1.48E-08,  avg # of iterations =  6.2

     total cpu time spent up to now is        7.2 secs

     total energy              =   -1367.14303785 Ry
     estimated scf accuracy    <       0.00001207 Ry

     iteration #  9     ecut=    20.00 Ry     beta= 0.30
     Davidson diagonalization with overlap

---- Real-time Memory Report at c_bands before calling an iterative solver
           418 MiB given to the printing process from OS
             0 MiB allocation reported by mallinfo(arena+hblkhd)
        173182 MiB available memory on the node where the printing process lives
------------------
     ethr =  6.63E-09,  avg # of iterations =  9.4

     total cpu time spent up to now is        8.3 secs

     End of self-consistent calculation

          k = 0.0011 0.0002 0.0000 ( 15391 PWs)   bands (ev):

   -74.1923 -74.0967 -74.0966 -74.0966 -74.0965 -74.0964 -74.0964 -40.4372
   -40.4372 -40.4370 -40.4370 -40.4368 -40.4368 -40.3457 -40.2885 -40.2885
   -40.2884 -40.2883 -40.2882 -40.2882 -40.2559 -40.2559 -40.2558 -40.2556
   -40.2555 -40.2555 -40.1522 -40.1522 -16.1677 -14.6844 -14.3542 -14.3532
   -14.3530 -14.3508 -14.3506 -14.3496 -13.9375 -13.9371 -13.9369 -13.9361
   -13.9359 -13.9356  -7.8688  -7.2779  -7.2775  -7.2764  -7.2757  -7.2745
    -7.2742  -6.4094  -6.4080  -6.4078  -6.4050  -6.4048  -6.4034  -5.8186
    -5.8183  -5.8180  -5.8174  -5.8171  -5.8168  -5.1162  -5.1159  -5.1153
    -5.1146  -5.1140  -5.1137  -4.3122  -4.3122  -4.0289  -4.0270  -4.0269
    -4.0232  -4.0230  -4.0211  -3.8533  -3.4114  -3.4113  -3.4099  -3.4098
    -3.4084  -3.4083  -3.0438  -3.0438  -2.3902  -2.3901  -2.3894  -2.3890
    -2.3883  -2.3881  -1.8482   0.6961   0.6963   0.6978   0.6981   0.6996
     0.6998   1.3731   1.3731   1.4292   1.4292   1.6140   1.6142   1.6154
     1.6159   1.6171   1.6173   1.9211   1.9219   1.9223   1.9240   1.9243
     1.9252   3.1832   3.1839   3.1840   3.1853   3.1855   3.1861   3.5821
     3.7370   4.0645   4.4251   4.7362   5.4824   5.7121   5.7123   5.7159
     5.7162   5.7198   5.7199   6.1595   6.1603   6.1621   6.1636   6.1654
     6.1661   6.2580   6.2594   6.2607   6.2635   6.2648   6.2662   6.4160
     6.9013   6.9038   6.9041   6.9092   6.9095   6.9120   7.2528   7.2537
     7.2559   7.2576   7.2599   7.2607   7.3859   7.4147   7.7352   7.7364
     7.7367   7.7392   7.7395   7.7408   7.7864   7.7865   7.7892   7.7895
     7.7922   7.7923   8.6067   8.6071   8.6083   8.6091   8.6103   8.6107
     8.7504   8.8974   8.8987   8.8990   8.9016   8.9019

     occupation numbers 
     1.0000   1.0000   1.0000   1.0000   1.0000   1.0000   1.0000   1.0000
     1.0000   1.0000   1.0000   1.0000   1.0000   1.0000   1.0000   1.0000
     1.0000   1.0000   1.0000   1.0000   1.0000   1.0000   1.0000   1.0000
     1.0000   1.0000   1.0000   1.0000   1.0000   1.0000   1.0000   1.0000
     1.0000   1.0000   1.0000   1.0000   1.0000   1.0000   1.0000   1.0000
     1.0000   1.0000   1.0000   1.0000   1.0000   1.0000   1.0000   1.0000
     1.0000   1.0000   1.0000   1.0000   1.0000   1.0000   1.0000   1.0000
     1.0000   1.0000   1.0000   1.0000   1.0000   1.0000   1.0000   1.0000
     1.0000   1.0000   1.0000   1.0000   1.0000   1.0000   1.0000   1.0000
     1.0000   1.0000   1.0000   1.0000   1.0000   1.0000   1.0000   1.0000
     1.0000   1.0000   1.0000   1.0000   1.0000   1.0000   1.0000   1.0000
     1.0000   1.0000   1.0000   0.0000   0.0000   0.0000   0.0000   0.0000
     0.0000   0.0000   0.0000   0.0000   0.0000   0.0000   0.0000   0.0000
     0.0000   0.0000   0.0000   0.0000   0.0000   0.0000   0.0000   0.0000
     0.0000   0.0000   0.0000   0.0000   0.0000   0.0000   0.0000   0.0000
     0.0000   0.0000   0.0000   0.0000   0.0000   0.0000   0.0000   0.0000
     0.0000   0.0000   0.0000   0.0000   0.0000   0.0000   0.0000   0.0000
     0.0000   0.0000   0.0000   0.0000   0.0000   0.0000   0.0000   0.0000
     0.0000   0.0000   0.0000   0.0000   0.0000   0.0000   0.0000   0.0000
     0.0000   0.0000   0.0000   0.0000   0.0000   0.0000   0.0000   0.0000
     0.0000   0.0000   0.0000   0.0000   0.0000   0.0000   0.0000   0.0000
     0.0000   0.0000   0.0000   0.0000   0.0000   0.0000   0.0000   0.0000
     0.0000   0.0000   0.0000   0.0000   0.0000   0.0000

          k =-0.2508 0.2912 0.0000 ( 15372 PWs)   bands (ev):

   -74.1308 -74.1253 -74.1231 -74.1143 -74.0874 -74.0807 -74.0796 -40.4989
   -40.4700 -40.4472 -40.4220 -40.4020 -40.3359 -40.3297 -40.3154 -40.3119
   -40.3064 -40.2962 -40.2960 -40.2815 -40.2787 -40.2762 -40.2413 -40.2396
   -40.2168 -40.2059 -40.2028 -40.1648 -15.8911 -15.1904 -14.6554 -14.6389
   -14.5588 -14.2784 -14.0641 -14.0543 -14.0497 -13.9405 -13.8378 -13.8298
   -13.7465 -13.7080  -7.8940  -7.5655  -7.4649  -7.2858  -7.2330  -7.1050
    -7.0384  -6.9867  -6.9496  -6.7742  -6.1414  -6.0012  -5.9826  -5.9808
    -5.9079  -5.9000  -5.8371  -5.6333  -5.3517  -5.1362  -5.0956  -5.0410
    -4.9812  -4.9156  -4.8996  -4.5901  -4.5750  -4.5584  -4.4503  -4.0375
    -3.8953  -3.8429  -3.8039  -3.6836  -3.6097  -3.5927  -3.5033  -3.1951
    -3.0551  -3.0278  -3.0070  -2.8866  -2.8425  -2.4633  -2.4400  -2.4161
    -2.0733  -1.9642  -1.9378   0.4499   0.4836   0.8526   0.8960   0.9576
     0.9804   1.0423   1.1043   1.2223   1.2315   1.3019   1.4351   1.4418
     1.6830   1.7005   1.7908   1.8386   1.9710   2.0024   2.0867   2.1031
     2.4903   2.7075   2.8905   2.9865   3.1193   3.4279   3.6032   3.9766
     4.0575   4.3288   4.4570   4.6882   4.8859   4.9710   5.0510   5.3349
     5.3955   5.3962   5.3989   5.6729   5.6799   5.7962   5.8664   5.8873
     5.9618   6.2894   6.2962   6.3109   6.3411   6.3519   6.4351   6.5046
     6.5986   6.7177   6.8019   6.9365   6.9490   7.1840   7.1854   7.2562
     7.3803   7.4551   7.4626   7.6098   7.6269   7.6599   7.6661   7.8940
     7.9667   8.1081   8.1553   8.2097   8.2621   8.2646   8.2861   8.3013
     8.3516   8.4098   8.4232   8.5081   8.5236   8.5808   8.6894   8.7810
     8.8272   8.9512   8.9844   9.0153   9.0155   9.1488

     occupation numbers 
     1.0000   1.0000   1.0000   1.0000   1.0000   1.0000   1.0000   1.0000
     1.0000   1.0000   1.0000   1.0000   1.0000   1.0000   1.0000   1.0000
     1.0000   1.0000   1.0000   1.0000   1.0000   1.0000   1.0000   1.0000
     1.0000   1.0000   1.0000   1.0000   1.0000   1.0000   1.0000   1.0000
     1.0000   1.0000   1.0000   1.0000   1.0000   1.0000   1.0000   1.0000
     1.0000   1.0000   1.0000   1.0000   1.0000   1.0000   1.0000   1.0000
     1.0000   1.0000   1.0000   1.0000   1.0000   1.0000   1.0000   1.0000
     1.0000   1.0000   1.0000   1.0000   1.0000   1.0000   1.0000   1.0000
     1.0000   1.0000   1.0000   1.0000   1.0000   1.0000   1.0000   1.0000
     1.0000   1.0000   1.0000   1.0000   1.0000   1.0000   1.0000   1.0000
     1.0000   1.0000   1.0000   1.0000   1.0000   1.0000   1.0000   1.0000
     1.0000   1.0000   1.0000   0.0000   0.0000   0.0000   0.0000   0.0000
     0.0000   0.0000   0.0000   0.0000   0.0000   0.0000   0.0000   0.0000
     0.0000   0.0000   0.0000   0.0000   0.0000   0.0000   0.0000   0.0000
     0.0000   0.0000   0.0000   0.0000   0.0000   0.0000   0.0000   0.0000
     0.0000   0.0000   0.0000   0.0000   0.0000   0.0000   0.0000   0.0000
     0.0000   0.0000   0.0000   0.0000   0.0000   0.0000   0.0000   0.0000
     0.0000   0.0000   0.0000   0.0000   0.0000   0.0000   0.0000   0.0000
     0.0000   0.0000   0.0000   0.0000   0.0000   0.0000   0.0000   0.0000
     0.0000   0.0000   0.0000   0.0000   0.0000   0.0000   0.0000   0.0000
     0.0000   0.0000   0.0000   0.0000   0.0000   0.0000   0.0000   0.0000
     0.0000   0.0000   0.0000   0.0000   0.0000   0.0000   0.0000   0.0000
     0.0000   0.0000   0.0000   0.0000   0.0000   0.0000

          k =-0.5028 0.5821 0.0000 ( 15372 PWs)   bands (ev):

   -74.1308 -74.1253 -74.1232 -74.1143 -74.0874 -74.0807 -74.0796 -40.4990
   -40.4703 -40.4472 -40.4213 -40.4026 -40.3359 -40.3292 -40.3159 -40.3120
   -40.3061 -40.2963 -40.2959 -40.2815 -40.2786 -40.2762 -40.2411 -40.2398
   -40.2166 -40.2063 -40.2027 -40.1648 -15.8896 -15.1929 -14.6601 -14.6350
   -14.5582 -14.2794 -14.0659 -14.0552 -14.0482 -13.9373 -13.8380 -13.8303
   -13.7451 -13.7082  -7.8948  -7.5638  -7.4681  -7.2813  -7.2319  -7.1042
    -7.0419  -6.9913  -6.9499  -6.7731  -6.1363  -6.0071  -5.9830  -5.9815
    -5.9066  -5.8981  -5.8381  -5.6334  -5.3469  -5.1346  -5.0952  -5.0408
    -4.9874  -4.9143  -4.9029  -4.5837  -4.5760  -4.5555  -4.4532  -4.0360
    -3.8959  -3.8431  -3.8043  -3.6870  -3.6077  -3.5948  -3.5048  -3.1984
    -3.0478  -3.0306  -3.0036  -2.8874  -2.8417  -2.4630  -2.4379  -2.4200
    -2.0697  -1.9649  -1.9388   0.4488   0.4864   0.8523   0.8938   0.9538
     0.9827   1.0408   1.1043   1.2225   1.2306   1.3027   1.4372   1.4385
     1.6808   1.7042   1.7898   1.8407   1.9744   2.0058   2.0862   2.0996
     2.4884   2.7064   2.8884   2.9897   3.1202   3.4239   3.6068   3.9785
     4.0594   4.3286   4.4590   4.6830   4.8829   4.9677   5.0529   5.3391
     5.3927   5.3943   5.3955   5.6674   5.6850   5.8020   5.8686   5.8901
     5.9584   6.2901   6.2911   6.3030   6.3373   6.3499   6.4349   6.5003
     6.5946   6.7195   6.8078   6.9423   6.9501   7.1803   7.1931   7.2517
     7.3849   7.4530   7.4623   7.6120   7.6339   7.6613   7.6643   7.8923
     7.9637   8.1065   8.1595   8.2222   8.2621   8.2712   8.2822   8.2923
     8.3552   8.4077   8.4204   8.5135   8.5175   8.5806   8.6842   8.7919
     8.8274   8.9502   8.9854   9.0138   9.0166   9.1593

     occupation numbers 
     1.0000   1.0000   1.0000   1.0000   1.0000   1.0000   1.0000   1.0000
     1.0000   1.0000   1.0000   1.0000   1.0000   1.0000   1.0000   1.0000
     1.0000   1.0000   1.0000   1.0000   1.0000   1.0000   1.0000   1.0000
     1.0000   1.0000   1.0000   1.0000   1.0000   1.0000   1.0000   1.0000
     1.0000   1.0000   1.0000   1.0000   1.0000   1.0000   1.0000   1.0000
     1.0000   1.0000   1.0000   1.0000   1.0000   1.0000   1.0000   1.0000
     1.0000   1.0000   1.0000   1.0000   1.0000   1.0000   1.0000   1.0000
     1.0000   1.0000   1.0000   1.0000   1.0000   1.0000   1.0000   1.0000
     1.0000   1.0000   1.0000   1.0000   1.0000   1.0000   1.0000   1.0000
     1.0000   1.0000   1.0000   1.0000   1.0000   1.0000   1.0000   1.0000
     1.0000   1.0000   1.0000   1.0000   1.0000   1.0000   1.0000   1.0000
     1.0000   1.0000   1.0000   0.0000   0.0000   0.0000   0.0000   0.0000
     0.0000   0.0000   0.0000   0.0000   0.0000   0.0000   0.0000   0.0000
     0.0000   0.0000   0.0000   0.0000   0.0000   0.0000   0.0000   0.0000
     0.0000   0.0000   0.0000   0.0000   0.0000   0.0000   0.0000   0.0000
     0.0000   0.0000   0.0000   0.0000   0.0000   0.0000   0.0000   0.0000
     0.0000   0.0000   0.0000   0.0000   0.0000   0.0000   0.0000   0.0000
     0.0000   0.0000   0.0000   0.0000   0.0000   0.0000   0.0000   0.0000
     0.0000   0.0000   0.0000   0.0000   0.0000   0.0000   0.0000   0.0000
     0.0000   0.0000   0.0000   0.0000   0.0000   0.0000   0.0000   0.0000
     0.0000   0.0000   0.0000   0.0000   0.0000   0.0000   0.0000   0.0000
     0.0000   0.0000   0.0000   0.0000   0.0000   0.0000   0.0000   0.0000
     0.0000   0.0000   0.0000   0.0000   0.0000   0.0000

          k = 0.3791 0.0730 0.0000 ( 15372 PWs)   bands (ev):

   -74.1308 -74.1253 -74.1231 -74.1143 -74.0874 -74.0807 -74.0796 -40.4991
   -40.4701 -40.4473 -40.4216 -40.4023 -40.3358 -40.3291 -40.3157 -40.3120
   -40.3064 -40.2963 -40.2960 -40.2815 -40.2786 -40.2762 -40.2412 -40.2396
   -40.2167 -40.2064 -40.2026 -40.1649 -15.8888 -15.1941 -14.6582 -14.6375
   -14.5579 -14.2799 -14.0652 -14.0542 -14.0492 -13.9379 -13.8373 -13.8299
   -13.7453 -13.7078  -7.8956  -7.5629  -7.4660  -7.2831  -7.2328  -7.1055
    -7.0407  -6.9905  -6.9508  -6.7742  -6.1383  -6.0041  -5.9832  -5.9812
    -5.9077  -5.8972  -5.8378  -5.6342  -5.3464  -5.1347  -5.0937  -5.0405
    -4.9845  -4.9148  -4.9044  -4.5885  -4.5725  -4.5566  -4.4543  -4.0353
    -3.8931  -3.8437  -3.8046  -3.6866  -3.6085  -3.5941  -3.5067  -3.1974
    -3.0486  -3.0295  -3.0044  -2.8868  -2.8420  -2.4637  -2.4377  -2.4187
    -2.0704  -1.9636  -1.9393   0.4499   0.4856   0.8527   0.8927   0.9553
     0.9810   1.0414   1.1035   1.2222   1.2300   1.3035   1.4353   1.4388
     1.6824   1.7033   1.7906   1.8421   1.9737   2.0035   2.0875   2.1010
     2.4894   2.7047   2.8892   2.9891   3.1187   3.4270   3.6055   3.9796
     4.0603   4.3258   4.4600   4.6850   4.8811   4.9658   5.0538   5.3415
     5.3915   5.3935   5.3948   5.6696   5.6814   5.7980   5.8677   5.8916
     5.9566   6.2890   6.2920   6.3062   6.3392   6.3497   6.4328   6.5027
     6.5962   6.7204   6.8037   6.9388   6.9492   7.1818   7.1918   7.2535
     7.3815   7.4551   7.4607   7.6137   7.6329   7.6621   7.6628   7.8949
     7.9672   8.1050   8.1587   8.2203   8.2653   8.2695   8.2838   8.2980
     8.3574   8.4107   8.4191   8.5105   8.5200   8.5795   8.6826   8.7897
     8.8298   8.9525   8.9893   9.0158   9.0171   9.1572

     occupation numbers 
     1.0000   1.0000   1.0000   1.0000   1.0000   1.0000   1.0000   1.0000
     1.0000   1.0000   1.0000   1.0000   1.0000   1.0000   1.0000   1.0000
     1.0000   1.0000   1.0000   1.0000   1.0000   1.0000   1.0000   1.0000
     1.0000   1.0000   1.0000   1.0000   1.0000   1.0000   1.0000   1.0000
     1.0000   1.0000   1.0000   1.0000   1.0000   1.0000   1.0000   1.0000
     1.0000   1.0000   1.0000   1.0000   1.0000   1.0000   1.0000   1.0000
     1.0000   1.0000   1.0000   1.0000   1.0000   1.0000   1.0000   1.0000
     1.0000   1.0000   1.0000   1.0000   1.0000   1.0000   1.0000   1.0000
     1.0000   1.0000   1.0000   1.0000   1.0000   1.0000   1.0000   1.0000
     1.0000   1.0000   1.0000   1.0000   1.0000   1.0000   1.0000   1.0000
     1.0000   1.0000   1.0000   1.0000   1.0000   1.0000   1.0000   1.0000
     1.0000   1.0000   1.0000   0.0000   0.0000   0.0000   0.0000   0.0000
     0.0000   0.0000   0.0000   0.0000   0.0000   0.0000   0.0000   0.0000
     0.0000   0.0000   0.0000   0.0000   0.0000   0.0000   0.0000   0.0000
     0.0000   0.0000   0.0000   0.0000   0.0000   0.0000   0.0000   0.0000
     0.0000   0.0000   0.0000   0.0000   0.0000   0.0000   0.0000   0.0000
     0.0000   0.0000   0.0000   0.0000   0.0000   0.0000   0.0000   0.0000
     0.0000   0.0000   0.0000   0.0000   0.0000   0.0000   0.0000   0.0000
     0.0000   0.0000   0.0000   0.0000   0.0000   0.0000   0.0000   0.0000
     0.0000   0.0000   0.0000   0.0000   0.0000   0.0000   0.0000   0.0000
     0.0000   0.0000   0.0000   0.0000   0.0000   0.0000   0.0000   0.0000
     0.0000   0.0000   0.0000   0.0000   0.0000   0.0000   0.0000   0.0000
     0.0000   0.0000   0.0000   0.0000   0.0000   0.0000

          k = 0.1271 0.3639 0.0000 ( 15372 PWs)   bands (ev):

   -74.1308 -74.1253 -74.1231 -74.1143 -74.0874 -74.0807 -74.0796 -40.4990
   -40.4700 -40.4473 -40.4219 -40.4021 -40.3359 -40.3293 -40.3155 -40.3120
   -40.3065 -40.2962 -40.2960 -40.2815 -40.2787 -40.2762 -40.2413 -40.2395
   -40.2167 -40.2062 -40.2026 -40.1649 -15.8896 -15.1929 -14.6558 -14.6394
   -14.5582 -14.2794 -14.0643 -14.0537 -14.0500 -13.9395 -13.8372 -13.8297
   -13.7460 -13.7077  -7.8952  -7.5638  -7.4644  -7.2853  -7.2333  -7.1059
    -7.0390  -6.9882  -6.9506  -6.7747  -6.1409  -6.0011  -5.9829  -5.9809
    -5.9084  -5.8982  -5.8373  -5.6341  -5.3488  -5.1355  -5.0939  -5.0406
    -4.9814  -4.9154  -4.9028  -4.5917  -4.5721  -4.5581  -4.4529  -4.0361
    -3.8928  -3.8436  -3.8044  -3.6849  -3.6095  -3.5930  -3.5060  -3.1958
    -3.0522  -3.0281  -3.0061  -2.8864  -2.8424  -2.4638  -2.4387  -2.4168
    -2.0722  -1.9633  -1.9388   0.4504   0.4842   0.8529   0.8938   0.9572
     0.9799   1.0421   1.1035   1.2221   1.2304   1.3030   1.4342   1.4405
     1.6835   1.7014   1.7911   1.8411   1.9720   2.0018   2.0878   2.1027
     2.4903   2.7052   2.8903   2.9875   3.1182   3.4290   3.6037   3.9786
     4.0594   4.3259   4.4590   4.6876   4.8826   4.9675   5.0529   5.3393
     5.3932   5.3953   5.3954   5.6723   5.6788   5.7951   5.8666   5.8901
     5.9583   6.2879   6.2951   6.3101   6.3411   6.3509   6.4329   6.5048
     6.5982   6.7195   6.8008   6.9359   6.9487   7.1836   7.1880   7.2558
     7.3792   7.4562   7.4608   7.6126   7.6294   7.6614   7.6637   7.8958
     7.9686   8.1057   8.1565   8.2141   8.2650   8.2666   8.2857   8.3026
     8.3556   8.4117   8.4206   8.5079   8.5230   8.5796   8.6852   8.7843
     8.8296   8.9530   8.9888   9.0164   9.0167   9.1520

     occupation numbers 
     1.0000   1.0000   1.0000   1.0000   1.0000   1.0000   1.0000   1.0000
     1.0000   1.0000   1.0000   1.0000   1.0000   1.0000   1.0000   1.0000
     1.0000   1.0000   1.0000   1.0000   1.0000   1.0000   1.0000   1.0000
     1.0000   1.0000   1.0000   1.0000   1.0000   1.0000   1.0000   1.0000
     1.0000   1.0000   1.0000   1.0000   1.0000   1.0000   1.0000   1.0000
     1.0000   1.0000   1.0000   1.0000   1.0000   1.0000   1.0000   1.0000
     1.0000   1.0000   1.0000   1.0000   1.0000   1.0000   1.0000   1.0000
     1.0000   1.0000   1.0000   1.0000   1.0000   1.0000   1.0000   1.0000
     1.0000   1.0000   1.0000   1.0000   1.0000   1.0000   1.0000   1.0000
     1.0000   1.0000   1.0000   1.0000   1.0000   1.0000   1.0000   1.0000
     1.0000   1.0000   1.0000   1.0000   1.0000   1.0000   1.0000   1.0000
     1.0000   1.0000   1.0000   0.0000   0.0000   0.0000   0.0000   0.0000
     0.0000   0.0000   0.0000   0.0000   0.0000   0.0000   0.0000   0.0000
     0.0000   0.0000   0.0000   0.0000   0.0000   0.0000   0.0000   0.0000
     0.0000   0.0000   0.0000   0.0000   0.0000   0.0000   0.0000   0.0000
     0.0000   0.0000   0.0000   0.0000   0.0000   0.0000   0.0000   0.0000
     0.0000   0.0000   0.0000   0.0000   0.0000   0.0000   0.0000   0.0000
     0.0000   0.0000   0.0000   0.0000   0.0000   0.0000   0.0000   0.0000
     0.0000   0.0000   0.0000   0.0000   0.0000   0.0000   0.0000   0.0000
     0.0000   0.0000   0.0000   0.0000   0.0000   0.0000   0.0000   0.0000
     0.0000   0.0000   0.0000   0.0000   0.0000   0.0000   0.0000   0.0000
     0.0000   0.0000   0.0000   0.0000   0.0000   0.0000   0.0000   0.0000
     0.0000   0.0000   0.0000   0.0000   0.0000   0.0000

          k =-0.1249 0.6549 0.0000 ( 15279 PWs)   bands (ev):

   -74.1085 -74.0833 -74.0833 -74.0832 -74.0685 -74.0684 -74.0684 -40.4834
   -40.4832 -40.4831 -40.4172 -40.3861 -40.3189 -40.3188 -40.3187 -40.2966
   -40.2962 -40.2958 -40.2814 -40.2813 -40.2813 -40.2718 -40.2514 -40.2512
   -40.2511 -40.1879 -40.1878 -40.1877 -15.4079 -15.4059 -15.4039 -14.3633
   -14.3625 -14.3616 -14.0785 -14.0768 -14.0759 -13.8317 -13.8309 -13.8307
   -13.6851 -13.6080  -7.7186  -7.7165  -7.7156  -7.3758  -7.0987  -7.0975
    -7.0958  -6.8222  -6.7485  -6.7477  -6.7457  -6.0936  -5.9129  -5.9125
    -5.9119  -5.6935  -5.6911  -5.6885  -5.4222  -5.1682  -5.1666  -5.1630
    -4.9811  -4.9799  -4.9795  -4.8932  -4.1148  -4.1101  -4.1093  -4.0633
    -3.7232  -3.7218  -3.7216  -3.6162  -3.6140  -3.6134  -3.5422  -3.5358
    -3.5351  -3.0747  -3.0730  -3.0712  -2.3193  -2.3180  -2.3158  -2.3020
    -2.3000  -2.2995  -1.6046   0.5080   0.5671   0.5679   0.5684   1.0520
     1.0521   1.0527   1.1401   1.1404   1.1430   1.4178   1.4202   1.4206
     1.6312   1.7281   1.7306   1.7308   2.4083   2.4141   2.4151   2.4176
     2.4307   2.4317   2.4348   2.9640   2.9654   2.9659   4.0422   4.5833
     4.5857   4.5884   4.6679   4.6705   4.6733   4.6886   4.6951   4.6954
     5.0819   5.0845   5.0874   5.3416   5.6585   5.6611   5.6639   5.7269
     6.1368   6.1378   6.1409   6.4477   6.4526   6.4530   6.5633   6.5684
     6.5703   6.7715   6.7724   6.7752   7.2398   7.2413   7.2435   7.4694
     7.4737   7.4742   7.7636   7.7690   7.7738   7.8616   7.9296   7.9307
     7.9319   8.1894   8.1895   8.1945   8.2233   8.2267   8.2287   8.2668
     8.2707   8.2737   8.3965   8.3995   8.4017   8.6542   8.6546   8.6579
     8.9668   9.0028   9.0044   9.0047   9.2196   9.2198

     occupation numbers 
     1.0000   1.0000   1.0000   1.0000   1.0000   1.0000   1.0000   1.0000
     1.0000   1.0000   1.0000   1.0000   1.0000   1.0000   1.0000   1.0000
     1.0000   1.0000   1.0000   1.0000   1.0000   1.0000   1.0000   1.0000
     1.0000   1.0000   1.0000   1.0000   1.0000   1.0000   1.0000   1.0000
     1.0000   1.0000   1.0000   1.0000   1.0000   1.0000   1.0000   1.0000
     1.0000   1.0000   1.0000   1.0000   1.0000   1.0000   1.0000   1.0000
     1.0000   1.0000   1.0000   1.0000   1.0000   1.0000   1.0000   1.0000
     1.0000   1.0000   1.0000   1.0000   1.0000   1.0000   1.0000   1.0000
     1.0000   1.0000   1.0000   1.0000   1.0000   1.0000   1.0000   1.0000
     1.0000   1.0000   1.0000   1.0000   1.0000   1.0000   1.0000   1.0000
     1.0000   1.0000   1.0000   1.0000   1.0000   1.0000   1.0000   1.0000
     1.0000   1.0000   1.0000   0.0000   0.0000   0.0000   0.0000   0.0000
     0.0000   0.0000   0.0000   0.0000   0.0000   0.0000   0.0000   0.0000
     0.0000   0.0000   0.0000   0.0000   0.0000   0.0000   0.0000   0.0000
     0.0000   0.0000   0.0000   0.0000   0.0000   0.0000   0.0000   0.0000
     0.0000   0.0000   0.0000   0.0000   0.0000   0.0000   0.0000   0.0000
     0.0000   0.0000   0.0000   0.0000   0.0000   0.0000   0.0000   0.0000
     0.0000   0.0000   0.0000   0.0000   0.0000   0.0000   0.0000   0.0000
     0.0000   0.0000   0.0000   0.0000   0.0000   0.0000   0.0000   0.0000
     0.0000   0.0000   0.0000   0.0000   0.0000   0.0000   0.0000   0.0000
     0.0000   0.0000   0.0000   0.0000   0.0000   0.0000   0.0000   0.0000
     0.0000   0.0000   0.0000   0.0000   0.0000   0.0000   0.0000   0.0000
     0.0000   0.0000   0.0000   0.0000   0.0000   0.0000

          k = 0.7571 0.1457 0.0000 ( 15372 PWs)   bands (ev):

   -74.1308 -74.1253 -74.1231 -74.1143 -74.0874 -74.0807 -74.0796 -40.4988
   -40.4702 -40.4472 -40.4217 -40.4023 -40.3359 -40.3299 -40.3156 -40.3119
   -40.3061 -40.2963 -40.2960 -40.2815 -40.2787 -40.2762 -40.2412 -40.2398
   -40.2167 -40.2058 -40.2029 -40.1647 -15.8918 -15.1891 -14.6573 -14.6364
   -14.5591 -14.2779 -14.0648 -14.0554 -14.0487 -13.9400 -13.8385 -13.8302
   -13.7462 -13.7084  -7.8932  -7.5664  -7.4669  -7.2840  -7.2321  -7.1037
    -7.0396  -6.9876  -6.9488  -6.7731  -6.1394  -6.0042  -5.9824  -5.9811
    -5.9068  -5.9008  -5.8374  -5.6325  -5.3522  -5.1360  -5.0971  -5.0412
    -4.9841  -4.9151  -4.8981  -4.5853  -4.5785  -4.5572  -4.4491  -4.0381
    -3.8980  -3.8423  -3.8036  -3.6840  -3.6089  -3.5935  -3.5014  -3.1960
    -3.0543  -3.0289  -3.0062  -2.8872  -2.8422  -2.4626  -2.4402  -2.4175
    -2.0727  -1.9655  -1.9374   0.4489   0.4844   0.8522   0.8971   0.9560
     0.9822   1.0417   1.1051   1.2226   1.2321   1.3011   1.4371   1.4415
     1.6814   1.7014   1.7900   1.8372   1.9717   2.0047   2.0854   2.1017
     2.4894   2.7093   2.8896   2.9872   3.1208   3.4249   3.6046   3.9755
     4.0566   4.3317   4.4560   4.6863   4.8878   4.9728   5.0501   5.3325
     5.3951   5.3975   5.4008   5.6707   5.6835   5.8002   5.8673   5.8859
     5.9636   6.2919   6.2943   6.3077   6.3391   6.3516   6.4373   6.5022
     6.5970   6.7168   6.8061   6.9400   6.9499   7.1825   7.1867   7.2544
     7.3836   7.4530   7.4642   7.6081   7.6278   7.6591   7.6676   7.8914
     7.9632   8.1097   8.1561   8.2116   8.2614   8.2638   8.2845   8.2957
     8.3494   8.4067   8.4245   8.5111   8.5212   8.5818   8.6910   8.7831
     8.8248   8.9489   8.9805   9.0134   9.0148   9.1509

     occupation numbers 
     1.0000   1.0000   1.0000   1.0000   1.0000   1.0000   1.0000   1.0000
     1.0000   1.0000   1.0000   1.0000   1.0000   1.0000   1.0000   1.0000
     1.0000   1.0000   1.0000   1.0000   1.0000   1.0000   1.0000   1.0000
     1.0000   1.0000   1.0000   1.0000   1.0000   1.0000   1.0000   1.0000
     1.0000   1.0000   1.0000   1.0000   1.0000   1.0000   1.0000   1.0000
     1.0000   1.0000   1.0000   1.0000   1.0000   1.0000   1.0000   1.0000
     1.0000   1.0000   1.0000   1.0000   1.0000   1.0000   1.0000   1.0000
     1.0000   1.0000   1.0000   1.0000   1.0000   1.0000   1.0000   1.0000
     1.0000   1.0000   1.0000   1.0000   1.0000   1.0000   1.0000   1.0000
     1.0000   1.0000   1.0000   1.0000   1.0000   1.0000   1.0000   1.0000
     1.0000   1.0000   1.0000   1.0000   1.0000   1.0000   1.0000   1.0000
     1.0000   1.0000   1.0000   0.0000   0.0000   0.0000   0.0000   0.0000
     0.0000   0.0000   0.0000   0.0000   0.0000   0.0000   0.0000   0.0000
     0.0000   0.0000   0.0000   0.0000   0.0000   0.0000   0.0000   0.0000
     0.0000   0.0000   0.0000   0.0000   0.0000   0.0000   0.0000   0.0000
     0.0000   0.0000   0.0000   0.0000   0.0000   0.0000   0.0000   0.0000
     0.0000   0.0000   0.0000   0.0000   0.0000   0.0000   0.0000   0.0000
     0.0000   0.0000   0.0000   0.0000   0.0000   0.0000   0.0000   0.0000
     0.0000   0.0000   0.0000   0.0000   0.0000   0.0000   0.0000   0.0000
     0.0000   0.0000   0.0000   0.0000   0.0000   0.0000   0.0000   0.0000
     0.0000   0.0000   0.0000   0.0000   0.0000   0.0000   0.0000   0.0000
     0.0000   0.0000   0.0000   0.0000   0.0000   0.0000   0.0000   0.0000
     0.0000   0.0000   0.0000   0.0000   0.0000   0.0000

          k = 0.5051 0.4367 0.0000 ( 15279 PWs)   bands (ev):

   -74.1085 -74.0833 -74.0832 -74.0832 -74.0685 -74.0684 -74.0684 -40.4834
   -40.4833 -40.4831 -40.4172 -40.3861 -40.3189 -40.3188 -40.3187 -40.2966
   -40.2962 -40.2959 -40.2814 -40.2814 -40.2813 -40.2718 -40.2514 -40.2512
   -40.2511 -40.1879 -40.1878 -40.1877 -15.4079 -15.4059 -15.4039 -14.3633
   -14.3624 -14.3616 -14.0782 -14.0773 -14.0756 -13.8315 -13.8313 -13.8305
   -13.6851 -13.6080  -7.7182  -7.7173  -7.7152  -7.3758  -7.0989  -7.0972
    -7.0960  -6.8222  -6.7489  -6.7470  -6.7461  -6.0936  -5.9130  -5.9123
    -5.9120  -5.6935  -5.6910  -5.6886  -5.4222  -5.1689  -5.1653  -5.1637
    -4.9808  -4.9804  -4.9792  -4.8932  -4.1135  -4.1127  -4.1080  -4.0633
    -3.7228  -3.7226  -3.7212  -3.6156  -3.6150  -3.6128  -3.5403  -3.5396
    -3.5332  -3.0747  -3.0729  -3.0713  -2.3196  -2.3174  -2.3161  -2.3015
    -2.3010  -2.2990  -1.6046   0.5080   0.5672   0.5677   0.5685   1.0519
     1.0524   1.0525   1.1394   1.1419   1.1423   1.4185   1.4188   1.4213
     1.6312   1.7289   1.7290   1.7316   2.4083   2.4136   2.4161   2.4171
     2.4300   2.4331   2.4341   2.9643   2.9648   2.9662   4.0422   4.5832
     4.5860   4.5883   4.6679   4.6706   4.6732   4.6906   4.6910   4.6974
     5.0818   5.0847   5.0873   5.3416   5.6585   5.6612   5.6638   5.7269
     6.1361   6.1392   6.1402   6.4492   6.4496   6.4545   6.5644   6.5662
     6.5714   6.7709   6.7737   6.7746   7.2396   7.2418   7.2432   7.4707
     7.4712   7.4755   7.7638   7.7686   7.7740   7.8616   7.9295   7.9307
     7.9318   8.1878   8.1927   8.1929   8.2238   8.2258   8.2292   8.2671
     8.2700   8.2740   8.3968   8.3990   8.4020   8.6532   8.6565   8.6569
     8.9668   9.0032   9.0035   9.0051   9.2189   9.2213

     occupation numbers 
     1.0000   1.0000   1.0000   1.0000   1.0000   1.0000   1.0000   1.0000
     1.0000   1.0000   1.0000   1.0000   1.0000   1.0000   1.0000   1.0000
     1.0000   1.0000   1.0000   1.0000   1.0000   1.0000   1.0000   1.0000
     1.0000   1.0000   1.0000   1.0000   1.0000   1.0000   1.0000   1.0000
     1.0000   1.0000   1.0000   1.0000   1.0000   1.0000   1.0000   1.0000
     1.0000   1.0000   1.0000   1.0000   1.0000   1.0000   1.0000   1.0000
     1.0000   1.0000   1.0000   1.0000   1.0000   1.0000   1.0000   1.0000
     1.0000   1.0000   1.0000   1.0000   1.0000   1.0000   1.0000   1.0000
     1.0000   1.0000   1.0000   1.0000   1.0000   1.0000   1.0000   1.0000
     1.0000   1.0000   1.0000   1.0000   1.0000   1.0000   1.0000   1.0000
     1.0000   1.0000   1.0000   1.0000   1.0000   1.0000   1.0000   1.0000
     1.0000   1.0000   1.0000   0.0000   0.0000   0.0000   0.0000   0.0000
     0.0000   0.0000   0.0000   0.0000   0.0000   0.0000   0.0000   0.0000
     0.0000   0.0000   0.0000   0.0000   0.0000   0.0000   0.0000   0.0000
     0.0000   0.0000   0.0000   0.0000   0.0000   0.0000   0.0000   0.0000
     0.0000   0.0000   0.0000   0.0000   0.0000   0.0000   0.0000   0.0000
     0.0000   0.0000   0.0000   0.0000   0.0000   0.0000   0.0000   0.0000
     0.0000   0.0000   0.0000   0.0000   0.0000   0.0000   0.0000   0.0000
     0.0000   0.0000   0.0000   0.0000   0.0000   0.0000   0.0000   0.0000
     0.0000   0.0000   0.0000   0.0000   0.0000   0.0000   0.0000   0.0000
     0.0000   0.0000   0.0000   0.0000   0.0000   0.0000   0.0000   0.0000
     0.0000   0.0000   0.0000   0.0000   0.0000   0.0000   0.0000   0.0000
     0.0000   0.0000   0.0000   0.0000   0.0000   0.0000

          k = 0.2531 0.7276 0.0000 ( 15372 PWs)   bands (ev):

   -74.1308 -74.1253 -74.1231 -74.1143 -74.0874 -74.0807 -74.0796 -40.4988
   -40.4703 -40.4472 -40.4214 -40.4026 -40.3359 -40.3296 -40.3158 -40.3119
   -40.3060 -40.2963 -40.2959 -40.2815 -40.2786 -40.2762 -40.2412 -40.2399
   -40.2166 -40.2059 -40.2028 -40.1648 -15.8911 -15.1904 -14.6596 -14.6345
   -14.5588 -14.2784 -14.0657 -14.0558 -14.0480 -13.9384 -13.8386 -13.8305
   -13.7455 -13.7085  -7.8935  -7.5655  -7.4685  -7.2818  -7.2316  -7.1033
    -7.0413  -6.9899  -6.9489  -6.7726  -6.1368  -6.0072  -5.9826  -5.9815
    -5.9061  -5.8999  -5.8379  -5.6326  -5.3498  -5.1352  -5.0969  -5.0411
    -4.9872  -4.9144  -4.8997  -4.5820  -4.5790  -4.5558  -4.4506  -4.0374
    -3.8984  -3.8424  -3.8038  -3.6858  -3.6079  -3.5945  -3.5021  -3.1977
    -3.0507  -3.0303  -3.0045  -2.8876  -2.8418  -2.4625  -2.4392  -2.4194
    -2.0709  -1.9658  -1.9379   0.4484   0.4858   0.8520   0.8960   0.9541
     0.9833   1.0410   1.1051   1.2228   1.2317   1.3015   1.4381   1.4398
     1.6802   1.7033   1.7896   1.8383   1.9734   2.0064   2.0851   2.1000
     2.4884   2.7087   2.8886   2.9888   3.1212   3.4229   3.6064   3.9765
     4.0575   4.3316   4.4570   4.6837   4.8863   4.9711   5.0510   5.3347
     5.3944   5.3957   5.3991   5.6680   5.6861   5.8031   5.8684   5.8873
     5.9619   6.2913   6.2926   6.3038   6.3372   6.3508   6.4372   6.5001
     6.5950   6.7177   6.8090   6.9429   6.9504   7.1807   7.1905   7.2521
     7.3859   7.4520   7.4641   7.6092   7.6314   7.6598   7.6667   7.8905
     7.9617   8.1089   8.1582   8.2178   8.2601   8.2683   8.2826   8.2911
     8.3512   8.4057   8.4230   8.5138   8.5181   8.5817   8.6884   8.7886
     8.8249   8.9484   8.9810   9.0126   9.0154   9.1561

     occupation numbers 
     1.0000   1.0000   1.0000   1.0000   1.0000   1.0000   1.0000   1.0000
     1.0000   1.0000   1.0000   1.0000   1.0000   1.0000   1.0000   1.0000
     1.0000   1.0000   1.0000   1.0000   1.0000   1.0000   1.0000   1.0000
     1.0000   1.0000   1.0000   1.0000   1.0000   1.0000   1.0000   1.0000
     1.0000   1.0000   1.0000   1.0000   1.0000   1.0000   1.0000   1.0000
     1.0000   1.0000   1.0000   1.0000   1.0000   1.0000   1.0000   1.0000
     1.0000   1.0000   1.0000   1.0000   1.0000   1.0000   1.0000   1.0000
     1.0000   1.0000   1.0000   1.0000   1.0000   1.0000   1.0000   1.0000
     1.0000   1.0000   1.0000   1.0000   1.0000   1.0000   1.0000   1.0000
     1.0000   1.0000   1.0000   1.0000   1.0000   1.0000   1.0000   1.0000
     1.0000   1.0000   1.0000   1.0000   1.0000   1.0000   1.0000   1.0000
     1.0000   1.0000   1.0000   0.0000   0.0000   0.0000   0.0000   0.0000
     0.0000   0.0000   0.0000   0.0000   0.0000   0.0000   0.0000   0.0000
     0.0000   0.0000   0.0000   0.0000   0.0000   0.0000   0.0000   0.0000
     0.0000   0.0000   0.0000   0.0000   0.0000   0.0000   0.0000   0.0000
     0.0000   0.0000   0.0000   0.0000   0.0000   0.0000   0.0000   0.0000
     0.0000   0.0000   0.0000   0.0000   0.0000   0.0000   0.0000   0.0000
     0.0000   0.0000   0.0000   0.0000   0.0000   0.0000   0.0000   0.0000
     0.0000   0.0000   0.0000   0.0000   0.0000   0.0000   0.0000   0.0000
     0.0000   0.0000   0.0000   0.0000   0.0000   0.0000   0.0000   0.0000
     0.0000   0.0000   0.0000   0.0000   0.0000   0.0000   0.0000   0.0000
     0.0000   0.0000   0.0000   0.0000   0.0000   0.0000   0.0000   0.0000
     0.0000   0.0000   0.0000   0.0000   0.0000   0.0000

     highest occupied, lowest unoccupied level (ev):    -1.6046    0.4484

!    total energy              =   -1367.14303942 Ry
     estimated scf accuracy    <       0.00000079 Ry

     The total energy is the sum of the following terms:
     one-electron contribution =  -10806.22407224 Ry
     hartree contribution      =    5392.85452824 Ry
     xc contribution           =    -320.23297525 Ry
     ewald contribution        =    4366.45947982 Ry

     convergence has been achieved in   9 iterations

     Writing all to output data dir ./WS2.save/
 
     init_run     :      0.21s CPU      0.28s WALL (       1 calls)
     electrons    :      7.54s CPU      7.82s WALL (       1 calls)

     Called by init_run:
     wfcinit      :      0.10s CPU      0.13s WALL (       1 calls)
     wfcinit:atom :      0.00s CPU      0.00s WALL (       1 calls)
     wfcinit:wfcr :      0.09s CPU      0.12s WALL (       1 calls)
     potinit      :      0.04s CPU      0.05s WALL (       1 calls)
     hinit0       :      0.05s CPU      0.06s WALL (       1 calls)

     Called by electrons:
     c_bands      :      7.15s CPU      7.38s WALL (      10 calls)
     sum_band     :      0.30s CPU      0.31s WALL (      10 calls)
     v_of_rho     :      0.05s CPU      0.06s WALL (      10 calls)
     v_h          :      0.00s CPU      0.00s WALL (      10 calls)
     v_xc         :      0.05s CPU      0.06s WALL (      10 calls)
     mix_rho      :      0.02s CPU      0.02s WALL (      10 calls)

     Called by c_bands:
     init_us_2    :      0.06s CPU      0.06s WALL (      21 calls)
     init_us_2:cp :      0.06s CPU      0.06s WALL (      21 calls)
     cegterg      :      5.88s CPU      6.10s WALL (      10 calls)

     Called by sum_band:
     sum_band:wei :      0.00s CPU      0.01s WALL (      10 calls)
     sum_band:loo :      0.26s CPU      0.27s WALL (      10 calls)
     sum_band:buf :      0.00s CPU      0.00s WALL (      10 calls)
     sum_band:ini :      0.03s CPU      0.03s WALL (      10 calls)

     Called by *egterg:
     cdiaghg      :      2.74s CPU      2.89s WALL (      79 calls)
     cegterg:over :      0.52s CPU      0.54s WALL (      70 calls)
     cegterg:upda :      0.45s CPU      0.47s WALL (      70 calls)
     cegterg:last :      0.12s CPU      0.12s WALL (      10 calls)
     cdiaghg:chol :      0.25s CPU      0.26s WALL (      79 calls)
     cdiaghg:inve :      0.03s CPU      0.04s WALL (      79 calls)
     cdiaghg:para :      0.64s CPU      0.69s WALL (     158 calls)
     h_psi        :      2.00s CPU      2.07s WALL (      81 calls)
     g_psi        :      0.01s CPU      0.01s WALL (      70 calls)

     Called by h_psi:
     h_psi:calbec :      0.36s CPU      0.37s WALL (      81 calls)
     vloc_psi     :      1.25s CPU      1.29s WALL (      81 calls)
     add_vuspsi   :      0.37s CPU      0.38s WALL (      81 calls)

     General routines
     calbec       :      0.36s CPU      0.37s WALL (      81 calls)
     fft          :      0.04s CPU      0.04s WALL (     101 calls)
     ffts         :      0.01s CPU      0.01s WALL (      10 calls)
     fftw         :      1.32s CPU      1.36s WALL (   12374 calls)
 
     Parallel routines
 
     PWSCF        :      8.23s CPU      8.84s WALL

 
   This run was terminated on:  22:28:27  19Apr2023            

=------------------------------------------------------------------------------=
   JOB DONE.
=------------------------------------------------------------------------------=
TACC:  Shutdown complete. Exiting. 
