TACC:  Starting up job 5405585 
TACC:  Starting parallel tasks... 

     Program PWSCF v.7.0 starts on 19Apr2023 at 22:27: 3 

     This program is part of the open-source Quantum ESPRESSO suite
     for quantum simulation of materials; please cite
         "P. Giannozzi et al., J. Phys.:Condens. Matter 21 395502 (2009);
         "P. Giannozzi et al., J. Phys.:Condens. Matter 29 465901 (2017);
         "P. Giannozzi et al., J. Chem. Phys. 152 154105 (2020);
          URL http://www.quantum-espresso.org", 
     in publications or presentations arising from this work. More details at
     http://www.quantum-espresso.org/quote

     Parallel version (MPI & OpenMP), running on     216 processor cores
     Number of MPI processes:               216
     Threads/MPI process:                     1

     MPI processes distributed on     4 nodes
     K-points division:     npool     =       9
     R & G space division:  proc/nbgrp/npool/nimage =      24
     177739 MiB available memory on the printing compute node when the environment starts
 
     Reading input from wfn.in

     Current dimensions of program PWSCF are:
     Max number of different atomic species (ntypx) = 10
     Max number of k-points (npk) =  40000
     Max angular momentum in pseudopotentials (lmaxx) =  4
     Found identity + (  0.2857  0.1429  0.0000) symmetry
     This is a supercell, fractional translations are disabled

     Subspace diagonalization in iterative solution of the eigenvalue problem:
     one sub-group per band group will be used
     ELPA distributed-memory algorithm (size of sub-group:  4*  4 procs)

 
     Parallelization info
     --------------------
     sticks:   dense  smooth     PW     G-vecs:    dense   smooth      PW
     Min          57      57     15                 5107     5107     765
     Max          58      58     16                 5120     5120     784
     Sum        1369    1369    379               122595   122595   18629
 
     Using Slab Decomposition
 


     bravais-lattice index     =            0
     lattice parameter (alat)  =      15.7492  a.u.
     unit-cell volume          =   10148.1386 (a.u.)^3
     number of atoms/cell      =           21
     number of atomic types    =            2
     number of electrons       =       182.00
     number of Kohn-Sham states=          182
     kinetic-energy cutoff     =      20.0000  Ry
     charge density cutoff     =      80.0000  Ry
     scf convergence threshold =      1.0E-06
     mixing beta               =       0.3000
     number of iterations used =            8  plain     mixing
     Exchange-correlation= PBE
                           (   1   4   3   4   0   0   0)

     celldm(1)=  15.749198  celldm(2)=   0.000000  celldm(3)=   0.000000
     celldm(4)=   0.000000  celldm(5)=   0.000000  celldm(6)=   0.000000

     crystal axes: (cart. coord. in units of alat)
               a(1) = (   0.755929   0.654654   0.000000 )  
               a(2) = (  -0.188982   0.981981   0.000000 )  
               a(3) = (   0.000000   0.000000   2.999718 )  

     reciprocal axes: (cart. coord. in units 2 pi/alat)
               b(1) = (  1.133893  0.218218  0.000000 )  
               b(2) = ( -0.755929  0.872872  0.000000 )  
               b(3) = (  0.000000  0.000000  0.333365 )  


     PseudoPot. # 1 for W  read from file:
     /work2/08702/wkim94/frontera/pseudo/pseudodojo/nc-sr-04_pbe_standard_upf/W.upf
     MD5 check sum: cb94e439a9e4ea809831d6e90c63864e
     Pseudo is Norm-conserving + core correction, Zval = 14.0
     Generated using ONCVPSP code by D. R. Hamann
     Using radial grid of 1396 points,  8 beta functions with: 
                l(1) =   0
                l(2) =   0
                l(3) =   1
                l(4) =   1
                l(5) =   2
                l(6) =   2
                l(7) =   3
                l(8) =   3

     PseudoPot. # 2 for S  read from file:
     /work2/08702/wkim94/frontera/pseudo/pseudodojo/nc-sr-04_pbe_standard_upf/S.upf
     MD5 check sum: 6027e7704d67ae28863b2247926ce6f3
     Pseudo is Norm-conserving + core correction, Zval =  6.0
     Generated using ONCVPSP code by D. R. Hamann
     Using radial grid of 1146 points,  6 beta functions with: 
                l(1) =   0
                l(2) =   0
                l(3) =   1
                l(4) =   1
                l(5) =   2
                l(6) =   2

     atomic species   valence    mass     pseudopotential
        W             14.00   183.84000     W ( 1.00)
        S              6.00    78.96000     S ( 1.00)

     No symmetry found


                                    s                        frac. trans.

      isym =  1     identity                                     

 cryst.   s( 1) = (     1          0          0      )
                  (     0          1          0      )
                  (     0          0          1      )

 cart.    s( 1) = (  1.0000000  0.0000000  0.0000000 )
                  (  0.0000000  1.0000000  0.0000000 )
                  (  0.0000000  0.0000000  1.0000000 )


   Cartesian axes

     site n.     atom                  positions (alat units)
         1           W   tau(   1) = (   0.1889822   0.7637626   1.4998590  )
         2           W   tau(   2) = (   0.3779645   1.0910895   1.4998590  )
         3           W   tau(   3) = (   0.5669467   1.4184163   1.4998590  )
         4           W   tau(   4) = (  -0.0000000   1.0910895   1.4998590  )
         5           W   tau(   5) = (   0.3779645   0.4364358   1.4998590  )
         6           W   tau(   6) = (   0.5669467   0.7637626   1.4998590  )
         7           W   tau(   7) = (   0.0000000   0.4364358   1.4998590  )
         8           S   tau(   8) = (   0.3779645   0.8728716   1.3078771  )
         9           S   tau(   9) = (   0.5669467   1.2001984   1.3078771  )
        10           S   tau(  10) = (  -0.0000000   0.8728716   1.3078771  )
        11           S   tau(  11) = (   0.1889822   1.2001984   1.3078771  )
        12           S   tau(  12) = (   0.5669467   0.5455447   1.3078771  )
        13           S   tau(  13) = (   0.0000000   0.2182179   1.3078771  )
        14           S   tau(  14) = (   0.1889822   0.5455447   1.3078771  )
        15           S   tau(  15) = (   0.3779645   0.8728716   1.6918410  )
        16           S   tau(  16) = (   0.5669467   1.2001984   1.6918410  )
        17           S   tau(  17) = (  -0.0000000   0.8728716   1.6918410  )
        18           S   tau(  18) = (   0.1889822   1.2001984   1.6918410  )
        19           S   tau(  19) = (   0.5669467   0.5455447   1.6918410  )
        20           S   tau(  20) = (   0.0000000   0.2182179   1.6918410  )
        21           S   tau(  21) = (   0.1889822   0.5455447   1.6918410  )

   Crystallographic axes

     site n.     atom                  positions (cryst. coord.)
         1           W   tau(   1) = (  0.3809524  0.5238095  0.5000000  )
         2           W   tau(   2) = (  0.6666667  0.6666667  0.5000000  )
         3           W   tau(   3) = (  0.9523810  0.8095238  0.5000000  )
         4           W   tau(   4) = (  0.2380952  0.9523810  0.5000000  )
         5           W   tau(   5) = (  0.5238095  0.0952381  0.5000000  )
         6           W   tau(   6) = (  0.8095238  0.2380952  0.5000000  )
         7           W   tau(   7) = (  0.0952381  0.3809524  0.5000000  )
         8           S   tau(   8) = (  0.6190476  0.4761905  0.4360000  )
         9           S   tau(   9) = (  0.9047619  0.6190476  0.4360000  )
        10           S   tau(  10) = (  0.1904762  0.7619048  0.4360000  )
        11           S   tau(  11) = (  0.4761905  0.9047619  0.4360000  )
        12           S   tau(  12) = (  0.7619048  0.0476190  0.4360000  )
        13           S   tau(  13) = (  0.0476190  0.1904762  0.4360000  )
        14           S   tau(  14) = (  0.3333333  0.3333333  0.4360000  )
        15           S   tau(  15) = (  0.6190476  0.4761905  0.5640000  )
        16           S   tau(  16) = (  0.9047619  0.6190476  0.5640000  )
        17           S   tau(  17) = (  0.1904762  0.7619048  0.5640000  )
        18           S   tau(  18) = (  0.4761905  0.9047619  0.5640000  )
        19           S   tau(  19) = (  0.7619048  0.0476190  0.5640000  )
        20           S   tau(  20) = (  0.0476190  0.1904762  0.5640000  )
        21           S   tau(  21) = (  0.3333333  0.3333333  0.5640000  )

     number of k points=     9
                       cart. coord. in units 2pi/alat
        k(    1) = (   0.0000000   0.0000000   0.0000000), wk =   0.2222222
        k(    2) = (  -0.2519763   0.2909572   0.0000000), wk =   0.2222222
        k(    3) = (  -0.5039526   0.5819144   0.0000000), wk =   0.2222222
        k(    4) = (   0.3779645   0.0727393   0.0000000), wk =   0.2222222
        k(    5) = (   0.1259882   0.3636965   0.0000000), wk =   0.2222222
        k(    6) = (  -0.1259882   0.6546537   0.0000000), wk =   0.2222222
        k(    7) = (   0.7559289   0.1454786   0.0000000), wk =   0.2222222
        k(    8) = (   0.5039526   0.4364358   0.0000000), wk =   0.2222222
        k(    9) = (   0.2519763   0.7273930   0.0000000), wk =   0.2222222

                       cryst. coord.
        k(    1) = (   0.0000000   0.0000000   0.0000000), wk =   0.2222222
        k(    2) = (   0.0000000   0.3333333   0.0000000), wk =   0.2222222
        k(    3) = (   0.0000000   0.6666667   0.0000000), wk =   0.2222222
        k(    4) = (   0.3333333   0.0000000   0.0000000), wk =   0.2222222
        k(    5) = (   0.3333333   0.3333333   0.0000000), wk =   0.2222222
        k(    6) = (   0.3333333   0.6666667   0.0000000), wk =   0.2222222
        k(    7) = (   0.6666667   0.0000000   0.0000000), wk =   0.2222222
        k(    8) = (   0.6666667   0.3333333   0.0000000), wk =   0.2222222
        k(    9) = (   0.6666667   0.6666667   0.0000000), wk =   0.2222222

     Dense  grid:   122595 G-vectors     FFT dimensions: (  45,  45, 135)

     Dynamical RAM for                 wfc:       1.77 MB

     Dynamical RAM for     wfc (w. buffer):       1.77 MB

     Dynamical RAM for           str. fact:       0.16 MB

     Dynamical RAM for           local pot:       0.00 MB

     Dynamical RAM for          nlocal pot:       4.63 MB

     Dynamical RAM for                qrad:       3.45 MB

     Dynamical RAM for          rho,v,vnew:       0.51 MB

     Dynamical RAM for               rhoin:       0.17 MB

     Dynamical RAM for            rho*nmix:       1.25 MB

     Dynamical RAM for           G-vectors:       0.33 MB

     Dynamical RAM for          h,s,v(r/c):       1.52 MB

     Dynamical RAM for          <psi|beta>:       1.32 MB

     Dynamical RAM for                 psi:       7.09 MB

     Dynamical RAM for                hpsi:       7.09 MB

     Dynamical RAM for      wfcinit/wfcrot:       4.30 MB

     Estimated static dynamical RAM per process >      11.73 MB

     Estimated max dynamical RAM per process >      29.99 MB

     Estimated total dynamical RAM >       6.09 GB

     Initial potential from superposition of free atoms

     starting charge     181.9960, renormalised to     182.0000

     negative rho (up, down):  2.135E-01 0.000E+00
     Starting wfcs are  126 randomized atomic wfcs +   56 random wfcs

     total cpu time spent up to now is        0.6 secs

     Self-consistent Calculation

     iteration #  1     ecut=    20.00 Ry     beta= 0.30
     Davidson diagonalization with overlap

---- Real-time Memory Report at c_bands before calling an iterative solver
           186 MiB given to the printing process from OS
             0 MiB allocation reported by mallinfo(arena+hblkhd)
        175635 MiB available memory on the node where the printing process lives
------------------
     ethr =  1.00E-02,  avg # of iterations =  6.7

     Threshold (ethr) on eigenvalues was too large:
     Diagonalizing with lowered threshold

     Davidson diagonalization with overlap

---- Real-time Memory Report at c_bands before calling an iterative solver
           280 MiB given to the printing process from OS
             0 MiB allocation reported by mallinfo(arena+hblkhd)
        174489 MiB available memory on the node where the printing process lives
------------------
     ethr =  6.46E-04,  avg # of iterations =  4.9

     negative rho (up, down):  1.465E-01 0.000E+00

     total cpu time spent up to now is        2.3 secs

     total energy              =   -1367.05383617 Ry
     estimated scf accuracy    <       1.17348891 Ry

     iteration #  2     ecut=    20.00 Ry     beta= 0.30
     Davidson diagonalization with overlap

---- Real-time Memory Report at c_bands before calling an iterative solver
           303 MiB given to the printing process from OS
             0 MiB allocation reported by mallinfo(arena+hblkhd)
        174254 MiB available memory on the node where the printing process lives
------------------
     ethr =  6.45E-04,  avg # of iterations =  2.0

     negative rho (up, down):  1.017E-01 0.000E+00

     total cpu time spent up to now is        2.6 secs

     total energy              =   -1367.10592334 Ry
     estimated scf accuracy    <       0.32005757 Ry

     iteration #  3     ecut=    20.00 Ry     beta= 0.30
     Davidson diagonalization with overlap

---- Real-time Memory Report at c_bands before calling an iterative solver
           309 MiB given to the printing process from OS
             0 MiB allocation reported by mallinfo(arena+hblkhd)
        174079 MiB available memory on the node where the printing process lives
------------------
     ethr =  1.76E-04,  avg # of iterations =  5.7

     negative rho (up, down):  5.380E-02 0.000E+00

     total cpu time spent up to now is        3.3 secs

     total energy              =   -1367.12898409 Ry
     estimated scf accuracy    <       0.11931040 Ry

     iteration #  4     ecut=    20.00 Ry     beta= 0.30
     Davidson diagonalization with overlap

---- Real-time Memory Report at c_bands before calling an iterative solver
           331 MiB given to the printing process from OS
             0 MiB allocation reported by mallinfo(arena+hblkhd)
        173655 MiB available memory on the node where the printing process lives
------------------
     ethr =  6.56E-05,  avg # of iterations =  4.1

     negative rho (up, down):  5.196E-03 0.000E+00

     total cpu time spent up to now is        3.7 secs

     total energy              =   -1367.14162757 Ry
     estimated scf accuracy    <       0.01834468 Ry

     iteration #  5     ecut=    20.00 Ry     beta= 0.30
     Davidson diagonalization with overlap

---- Real-time Memory Report at c_bands before calling an iterative solver
           336 MiB given to the printing process from OS
             0 MiB allocation reported by mallinfo(arena+hblkhd)
        173704 MiB available memory on the node where the printing process lives
------------------
     ethr =  1.01E-05,  avg # of iterations =  7.6

     negative rho (up, down):  8.869E-04 0.000E+00

     total cpu time spent up to now is        4.5 secs

     total energy              =   -1367.14286021 Ry
     estimated scf accuracy    <       0.00078803 Ry

     iteration #  6     ecut=    20.00 Ry     beta= 0.30
     Davidson diagonalization with overlap

---- Real-time Memory Report at c_bands before calling an iterative solver
           359 MiB given to the printing process from OS
             0 MiB allocation reported by mallinfo(arena+hblkhd)
        173384 MiB available memory on the node where the printing process lives
------------------
     ethr =  4.33E-07,  avg # of iterations = 10.6

     negative rho (up, down):  2.471E-06 0.000E+00

     total cpu time spent up to now is        5.9 secs

     total energy              =   -1367.14299587 Ry
     estimated scf accuracy    <       0.00020891 Ry

     iteration #  7     ecut=    20.00 Ry     beta= 0.30
     Davidson diagonalization with overlap

---- Real-time Memory Report at c_bands before calling an iterative solver
           384 MiB given to the printing process from OS
             0 MiB allocation reported by mallinfo(arena+hblkhd)
        173022 MiB available memory on the node where the printing process lives
------------------
     ethr =  1.15E-07,  avg # of iterations =  9.3

     total cpu time spent up to now is        6.9 secs

     total energy              =   -1367.14303964 Ry
     estimated scf accuracy    <       0.00002726 Ry

     iteration #  8     ecut=    20.00 Ry     beta= 0.30
     Davidson diagonalization with overlap

---- Real-time Memory Report at c_bands before calling an iterative solver
           418 MiB given to the printing process from OS
             0 MiB allocation reported by mallinfo(arena+hblkhd)
        172972 MiB available memory on the node where the printing process lives
------------------
     ethr =  1.50E-08,  avg # of iterations =  6.1

     total cpu time spent up to now is        7.5 secs

     total energy              =   -1367.14303825 Ry
     estimated scf accuracy    <       0.00001207 Ry

     iteration #  9     ecut=    20.00 Ry     beta= 0.30
     Davidson diagonalization with overlap

---- Real-time Memory Report at c_bands before calling an iterative solver
           422 MiB given to the printing process from OS
             0 MiB allocation reported by mallinfo(arena+hblkhd)
        172947 MiB available memory on the node where the printing process lives
------------------
     c_bands:  1 eigenvalues not converged
     ethr =  6.63E-09,  avg # of iterations =  7.9

     total cpu time spent up to now is        8.8 secs

     End of self-consistent calculation

          k = 0.0000 0.0000 0.0000 ( 15391 PWs)   bands (ev):

   -74.1923 -74.0967 -74.0967 -74.0966 -74.0965 -74.0964 -74.0963 -40.4371
   -40.4371 -40.4370 -40.4370 -40.4369 -40.4369 -40.3457 -40.2885 -40.2885
   -40.2884 -40.2883 -40.2882 -40.2882 -40.2558 -40.2558 -40.2557 -40.2557
   -40.2556 -40.2556 -40.1522 -40.1522 -16.1677 -14.6844 -14.3520 -14.3519
   -14.3519 -14.3519 -14.3518 -14.3518 -13.9366 -13.9365 -13.9365 -13.9365
   -13.9365 -13.9364  -7.8688  -7.2760  -7.2760  -7.2760  -7.2760  -7.2760
    -7.2760  -6.4064  -6.4064  -6.4064  -6.4064  -6.4064  -6.4064  -5.8177
    -5.8177  -5.8177  -5.8177  -5.8177  -5.8177  -5.1150  -5.1150  -5.1149
    -5.1149  -5.1149  -5.1149  -4.3122  -4.3122  -4.0250  -4.0250  -4.0250
    -4.0250  -4.0250  -4.0250  -3.8533  -3.4099  -3.4099  -3.4098  -3.4098
    -3.4098  -3.4098  -3.0438  -3.0438  -2.3892  -2.3892  -2.3892  -2.3892
    -2.3891  -2.3891  -1.8481   0.6979   0.6979   0.6980   0.6980   0.6980
     0.6980   1.3731   1.3731   1.4292   1.4292   1.6156   1.6156   1.6157
     1.6157   1.6157   1.6157   1.9231   1.9231   1.9231   1.9232   1.9232
     1.9232   3.1846   3.1846   3.1847   3.1847   3.1847   3.1847   3.5821
     3.7370   4.0645   4.4251   4.7362   5.4824   5.7160   5.7160   5.7160
     5.7161   5.7161   5.7161   6.1628   6.1628   6.1628   6.1628   6.1628
     6.1630   6.2620   6.2620   6.2621   6.2621   6.2621   6.2623   6.4159
     6.9063   6.9066   6.9066   6.9066   6.9068   6.9068   7.2565   7.2568
     7.2568   7.2568   7.2569   7.2569   7.3859   7.4147   7.7378   7.7379
     7.7379   7.7380   7.7380   7.7381   7.7892   7.7893   7.7893   7.7893
     7.7894   7.7894   8.6085   8.6087   8.6088   8.6088   8.6088   8.6088
     8.7504   8.9002   8.9002   8.9002   8.9004   8.9004

     occupation numbers 
     1.0000   1.0000   1.0000   1.0000   1.0000   1.0000   1.0000   1.0000
     1.0000   1.0000   1.0000   1.0000   1.0000   1.0000   1.0000   1.0000
     1.0000   1.0000   1.0000   1.0000   1.0000   1.0000   1.0000   1.0000
     1.0000   1.0000   1.0000   1.0000   1.0000   1.0000   1.0000   1.0000
     1.0000   1.0000   1.0000   1.0000   1.0000   1.0000   1.0000   1.0000
     1.0000   1.0000   1.0000   1.0000   1.0000   1.0000   1.0000   1.0000
     1.0000   1.0000   1.0000   1.0000   1.0000   1.0000   1.0000   1.0000
     1.0000   1.0000   1.0000   1.0000   1.0000   1.0000   1.0000   1.0000
     1.0000   1.0000   1.0000   1.0000   1.0000   1.0000   1.0000   1.0000
     1.0000   1.0000   1.0000   1.0000   1.0000   1.0000   1.0000   1.0000
     1.0000   1.0000   1.0000   1.0000   1.0000   1.0000   1.0000   1.0000
     1.0000   1.0000   1.0000   0.0000   0.0000   0.0000   0.0000   0.0000
     0.0000   0.0000   0.0000   0.0000   0.0000   0.0000   0.0000   0.0000
     0.0000   0.0000   0.0000   0.0000   0.0000   0.0000   0.0000   0.0000
     0.0000   0.0000   0.0000   0.0000   0.0000   0.0000   0.0000   0.0000
     0.0000   0.0000   0.0000   0.0000   0.0000   0.0000   0.0000   0.0000
     0.0000   0.0000   0.0000   0.0000   0.0000   0.0000   0.0000   0.0000
     0.0000   0.0000   0.0000   0.0000   0.0000   0.0000   0.0000   0.0000
     0.0000   0.0000   0.0000   0.0000   0.0000   0.0000   0.0000   0.0000
     0.0000   0.0000   0.0000   0.0000   0.0000   0.0000   0.0000   0.0000
     0.0000   0.0000   0.0000   0.0000   0.0000   0.0000   0.0000   0.0000
     0.0000   0.0000   0.0000   0.0000   0.0000   0.0000   0.0000   0.0000
     0.0000   0.0000   0.0000   0.0000   0.0000   0.0000

          k =-0.2520 0.2910 0.0000 ( 15372 PWs)   bands (ev):

   -74.1308 -74.1253 -74.1231 -74.1143 -74.0874 -74.0807 -74.0796 -40.4989
   -40.4701 -40.4472 -40.4216 -40.4023 -40.3359 -40.3295 -40.3156 -40.3119
   -40.3062 -40.2963 -40.2959 -40.2815 -40.2786 -40.2762 -40.2412 -40.2397
   -40.2167 -40.2061 -40.2027 -40.1648 -15.8903 -15.1916 -14.6577 -14.6369
   -14.5585 -14.2789 -14.0650 -14.0548 -14.0489 -13.9389 -13.8379 -13.8300
   -13.7457 -13.7081  -7.8944  -7.5647  -7.4665  -7.2835  -7.2325  -7.1046
    -7.0401  -6.9890  -6.9497  -6.7736  -6.1388  -6.0041  -5.9828  -5.9812
    -5.9072  -5.8990  -5.8376  -5.6333  -5.3493  -5.1354  -5.0954  -5.0409
    -4.9843  -4.9149  -4.9012  -4.5869  -4.5755  -4.5569  -4.4517  -4.0367
    -3.8956  -3.8430  -3.8041  -3.6853  -3.6087  -3.5937  -3.5040  -3.1967
    -3.0514  -3.0292  -3.0053  -2.8870  -2.8421  -2.4631  -2.4389  -2.4181
    -2.0715  -1.9645  -1.9383   0.4494   0.4850   0.8525   0.8949   0.9557
     0.9816   1.0416   1.1043   1.2224   1.2311   1.3023   1.4362   1.4402
     1.6819   1.7024   1.7903   1.8397   1.9727   2.0041   2.0865   2.1014
     2.4894   2.7070   2.8894   2.9881   3.1197   3.4259   3.6050   3.9776
     4.0584   4.3287   4.4580   4.6856   4.8844   4.9693   5.0520   5.3370
     5.3945   5.3949   5.3972   5.6702   5.6824   5.7991   5.8675   5.8887
     5.9601   6.2905   6.2932   6.3069   6.3392   6.3507   6.4350   6.5025
     6.5966   6.7186   6.8049   6.9394   6.9495   7.1822   7.1892   7.2539
     7.3826   7.4541   7.4625   7.6109   7.6304   7.6606   7.6652   7.8932
     7.9652   8.1073   8.1574   8.2159   8.2633   8.2666   8.2841   8.2969
     8.3534   8.4087   8.4218   8.5108   8.5206   8.5807   8.6868   8.7864
     8.8273   8.9507   8.9849   9.0146   9.0159   9.1540

     occupation numbers 
     1.0000   1.0000   1.0000   1.0000   1.0000   1.0000   1.0000   1.0000
     1.0000   1.0000   1.0000   1.0000   1.0000   1.0000   1.0000   1.0000
     1.0000   1.0000   1.0000   1.0000   1.0000   1.0000   1.0000   1.0000
     1.0000   1.0000   1.0000   1.0000   1.0000   1.0000   1.0000   1.0000
     1.0000   1.0000   1.0000   1.0000   1.0000   1.0000   1.0000   1.0000
     1.0000   1.0000   1.0000   1.0000   1.0000   1.0000   1.0000   1.0000
     1.0000   1.0000   1.0000   1.0000   1.0000   1.0000   1.0000   1.0000
     1.0000   1.0000   1.0000   1.0000   1.0000   1.0000   1.0000   1.0000
     1.0000   1.0000   1.0000   1.0000   1.0000   1.0000   1.0000   1.0000
     1.0000   1.0000   1.0000   1.0000   1.0000   1.0000   1.0000   1.0000
     1.0000   1.0000   1.0000   1.0000   1.0000   1.0000   1.0000   1.0000
     1.0000   1.0000   1.0000   0.0000   0.0000   0.0000   0.0000   0.0000
     0.0000   0.0000   0.0000   0.0000   0.0000   0.0000   0.0000   0.0000
     0.0000   0.0000   0.0000   0.0000   0.0000   0.0000   0.0000   0.0000
     0.0000   0.0000   0.0000   0.0000   0.0000   0.0000   0.0000   0.0000
     0.0000   0.0000   0.0000   0.0000   0.0000   0.0000   0.0000   0.0000
     0.0000   0.0000   0.0000   0.0000   0.0000   0.0000   0.0000   0.0000
     0.0000   0.0000   0.0000   0.0000   0.0000   0.0000   0.0000   0.0000
     0.0000   0.0000   0.0000   0.0000   0.0000   0.0000   0.0000   0.0000
     0.0000   0.0000   0.0000   0.0000   0.0000   0.0000   0.0000   0.0000
     0.0000   0.0000   0.0000   0.0000   0.0000   0.0000   0.0000   0.0000
     0.0000   0.0000   0.0000   0.0000   0.0000   0.0000   0.0000   0.0000
     0.0000   0.0000   0.0000   0.0000   0.0000   0.0000

          k =-0.5040 0.5819 0.0000 ( 15372 PWs)   bands (ev):

   -74.1308 -74.1253 -74.1231 -74.1143 -74.0874 -74.0807 -74.0796 -40.4989
   -40.4701 -40.4472 -40.4216 -40.4023 -40.3359 -40.3295 -40.3156 -40.3119
   -40.3062 -40.2963 -40.2959 -40.2815 -40.2786 -40.2762 -40.2412 -40.2397
   -40.2167 -40.2061 -40.2027 -40.1648 -15.8903 -15.1916 -14.6577 -14.6369
   -14.5585 -14.2789 -14.0650 -14.0548 -14.0489 -13.9389 -13.8379 -13.8300
   -13.7457 -13.7081  -7.8944  -7.5647  -7.4665  -7.2835  -7.2325  -7.1046
    -7.0401  -6.9890  -6.9497  -6.7736  -6.1388  -6.0041  -5.9828  -5.9812
    -5.9072  -5.8990  -5.8376  -5.6333  -5.3493  -5.1354  -5.0954  -5.0409
    -4.9843  -4.9149  -4.9012  -4.5869  -4.5755  -4.5569  -4.4517  -4.0367
    -3.8956  -3.8430  -3.8041  -3.6853  -3.6087  -3.5937  -3.5040  -3.1967
    -3.0514  -3.0292  -3.0053  -2.8870  -2.8421  -2.4631  -2.4389  -2.4181
    -2.0715  -1.9645  -1.9383   0.4494   0.4850   0.8525   0.8949   0.9557
     0.9816   1.0416   1.1043   1.2224   1.2311   1.3023   1.4362   1.4402
     1.6819   1.7024   1.7903   1.8397   1.9727   2.0041   2.0865   2.1014
     2.4894   2.7070   2.8894   2.9881   3.1197   3.4259   3.6050   3.9776
     4.0584   4.3287   4.4580   4.6856   4.8844   4.9693   5.0520   5.3370
     5.3945   5.3949   5.3972   5.6702   5.6824   5.7991   5.8675   5.8887
     5.9601   6.2905   6.2932   6.3069   6.3392   6.3507   6.4350   6.5025
     6.5966   6.7186   6.8049   6.9394   6.9495   7.1822   7.1892   7.2539
     7.3826   7.4541   7.4625   7.6109   7.6304   7.6606   7.6652   7.8932
     7.9652   8.1073   8.1574   8.2159   8.2633   8.2666   8.2841   8.2969
     8.3534   8.4087   8.4218   8.5108   8.5206   8.5807   8.6868   8.7864
     8.8273   8.9507   8.9849   9.0146   9.0159   9.1540

     occupation numbers 
     1.0000   1.0000   1.0000   1.0000   1.0000   1.0000   1.0000   1.0000
     1.0000   1.0000   1.0000   1.0000   1.0000   1.0000   1.0000   1.0000
     1.0000   1.0000   1.0000   1.0000   1.0000   1.0000   1.0000   1.0000
     1.0000   1.0000   1.0000   1.0000   1.0000   1.0000   1.0000   1.0000
     1.0000   1.0000   1.0000   1.0000   1.0000   1.0000   1.0000   1.0000
     1.0000   1.0000   1.0000   1.0000   1.0000   1.0000   1.0000   1.0000
     1.0000   1.0000   1.0000   1.0000   1.0000   1.0000   1.0000   1.0000
     1.0000   1.0000   1.0000   1.0000   1.0000   1.0000   1.0000   1.0000
     1.0000   1.0000   1.0000   1.0000   1.0000   1.0000   1.0000   1.0000
     1.0000   1.0000   1.0000   1.0000   1.0000   1.0000   1.0000   1.0000
     1.0000   1.0000   1.0000   1.0000   1.0000   1.0000   1.0000   1.0000
     1.0000   1.0000   1.0000   0.0000   0.0000   0.0000   0.0000   0.0000
     0.0000   0.0000   0.0000   0.0000   0.0000   0.0000   0.0000   0.0000
     0.0000   0.0000   0.0000   0.0000   0.0000   0.0000   0.0000   0.0000
     0.0000   0.0000   0.0000   0.0000   0.0000   0.0000   0.0000   0.0000
     0.0000   0.0000   0.0000   0.0000   0.0000   0.0000   0.0000   0.0000
     0.0000   0.0000   0.0000   0.0000   0.0000   0.0000   0.0000   0.0000
     0.0000   0.0000   0.0000   0.0000   0.0000   0.0000   0.0000   0.0000
     0.0000   0.0000   0.0000   0.0000   0.0000   0.0000   0.0000   0.0000
     0.0000   0.0000   0.0000   0.0000   0.0000   0.0000   0.0000   0.0000
     0.0000   0.0000   0.0000   0.0000   0.0000   0.0000   0.0000   0.0000
     0.0000   0.0000   0.0000   0.0000   0.0000   0.0000   0.0000   0.0000
     0.0000   0.0000   0.0000   0.0000   0.0000   0.0000

          k = 0.3780 0.0727 0.0000 ( 15372 PWs)   bands (ev):

   -74.1308 -74.1253 -74.1231 -74.1143 -74.0874 -74.0807 -74.0796 -40.4989
   -40.4701 -40.4472 -40.4216 -40.4023 -40.3359 -40.3295 -40.3156 -40.3119
   -40.3062 -40.2963 -40.2960 -40.2815 -40.2786 -40.2762 -40.2412 -40.2397
   -40.2167 -40.2061 -40.2027 -40.1648 -15.8903 -15.1916 -14.6577 -14.6369
   -14.5585 -14.2789 -14.0650 -14.0548 -14.0489 -13.9389 -13.8379 -13.8300
   -13.7457 -13.7081  -7.8944  -7.5647  -7.4665  -7.2835  -7.2325  -7.1046
    -7.0401  -6.9890  -6.9497  -6.7736  -6.1388  -6.0041  -5.9828  -5.9812
    -5.9072  -5.8990  -5.8376  -5.6333  -5.3493  -5.1354  -5.0954  -5.0409
    -4.9843  -4.9149  -4.9012  -4.5869  -4.5755  -4.5569  -4.4517  -4.0367
    -3.8956  -3.8430  -3.8041  -3.6853  -3.6087  -3.5937  -3.5040  -3.1967
    -3.0514  -3.0292  -3.0053  -2.8870  -2.8421  -2.4631  -2.4389  -2.4181
    -2.0715  -1.9645  -1.9383   0.4494   0.4850   0.8525   0.8949   0.9557
     0.9816   1.0416   1.1043   1.2224   1.2311   1.3023   1.4362   1.4402
     1.6819   1.7024   1.7903   1.8397   1.9727   2.0041   2.0865   2.1014
     2.4894   2.7070   2.8894   2.9881   3.1197   3.4259   3.6050   3.9776
     4.0584   4.3287   4.4580   4.6856   4.8844   4.9693   5.0520   5.3370
     5.3945   5.3949   5.3972   5.6702   5.6824   5.7991   5.8675   5.8887
     5.9601   6.2905   6.2932   6.3069   6.3392   6.3507   6.4350   6.5025
     6.5966   6.7186   6.8049   6.9394   6.9495   7.1822   7.1892   7.2539
     7.3826   7.4541   7.4625   7.6109   7.6304   7.6606   7.6652   7.8932
     7.9652   8.1073   8.1574   8.2159   8.2633   8.2666   8.2841   8.2969
     8.3534   8.4087   8.4218   8.5108   8.5206   8.5807   8.6868   8.7864
     8.8273   8.9507   8.9849   9.0146   9.0159   9.1540

     occupation numbers 
     1.0000   1.0000   1.0000   1.0000   1.0000   1.0000   1.0000   1.0000
     1.0000   1.0000   1.0000   1.0000   1.0000   1.0000   1.0000   1.0000
     1.0000   1.0000   1.0000   1.0000   1.0000   1.0000   1.0000   1.0000
     1.0000   1.0000   1.0000   1.0000   1.0000   1.0000   1.0000   1.0000
     1.0000   1.0000   1.0000   1.0000   1.0000   1.0000   1.0000   1.0000
     1.0000   1.0000   1.0000   1.0000   1.0000   1.0000   1.0000   1.0000
     1.0000   1.0000   1.0000   1.0000   1.0000   1.0000   1.0000   1.0000
     1.0000   1.0000   1.0000   1.0000   1.0000   1.0000   1.0000   1.0000
     1.0000   1.0000   1.0000   1.0000   1.0000   1.0000   1.0000   1.0000
     1.0000   1.0000   1.0000   1.0000   1.0000   1.0000   1.0000   1.0000
     1.0000   1.0000   1.0000   1.0000   1.0000   1.0000   1.0000   1.0000
     1.0000   1.0000   1.0000   0.0000   0.0000   0.0000   0.0000   0.0000
     0.0000   0.0000   0.0000   0.0000   0.0000   0.0000   0.0000   0.0000
     0.0000   0.0000   0.0000   0.0000   0.0000   0.0000   0.0000   0.0000
     0.0000   0.0000   0.0000   0.0000   0.0000   0.0000   0.0000   0.0000
     0.0000   0.0000   0.0000   0.0000   0.0000   0.0000   0.0000   0.0000
     0.0000   0.0000   0.0000   0.0000   0.0000   0.0000   0.0000   0.0000
     0.0000   0.0000   0.0000   0.0000   0.0000   0.0000   0.0000   0.0000
     0.0000   0.0000   0.0000   0.0000   0.0000   0.0000   0.0000   0.0000
     0.0000   0.0000   0.0000   0.0000   0.0000   0.0000   0.0000   0.0000
     0.0000   0.0000   0.0000   0.0000   0.0000   0.0000   0.0000   0.0000
     0.0000   0.0000   0.0000   0.0000   0.0000   0.0000   0.0000   0.0000
     0.0000   0.0000   0.0000   0.0000   0.0000   0.0000

          k = 0.1260 0.3637 0.0000 ( 15372 PWs)   bands (ev):

   -74.1308 -74.1253 -74.1231 -74.1143 -74.0874 -74.0807 -74.0796 -40.4989
   -40.4702 -40.4472 -40.4216 -40.4023 -40.3359 -40.3295 -40.3156 -40.3119
   -40.3062 -40.2963 -40.2959 -40.2815 -40.2786 -40.2762 -40.2412 -40.2397
   -40.2167 -40.2061 -40.2027 -40.1648 -15.8903 -15.1916 -14.6577 -14.6369
   -14.5585 -14.2789 -14.0650 -14.0548 -14.0489 -13.9389 -13.8379 -13.8300
   -13.7457 -13.7081  -7.8944  -7.5647  -7.4665  -7.2835  -7.2325  -7.1046
    -7.0401  -6.9890  -6.9497  -6.7736  -6.1388  -6.0041  -5.9828  -5.9812
    -5.9072  -5.8990  -5.8376  -5.6333  -5.3493  -5.1354  -5.0954  -5.0409
    -4.9843  -4.9149  -4.9012  -4.5869  -4.5755  -4.5569  -4.4517  -4.0367
    -3.8956  -3.8430  -3.8041  -3.6853  -3.6087  -3.5937  -3.5040  -3.1967
    -3.0514  -3.0292  -3.0053  -2.8870  -2.8421  -2.4631  -2.4389  -2.4181
    -2.0715  -1.9645  -1.9383   0.4494   0.4850   0.8525   0.8949   0.9557
     0.9816   1.0416   1.1043   1.2224   1.2311   1.3023   1.4362   1.4402
     1.6819   1.7024   1.7903   1.8397   1.9727   2.0041   2.0865   2.1014
     2.4894   2.7070   2.8894   2.9881   3.1197   3.4259   3.6050   3.9776
     4.0584   4.3287   4.4580   4.6856   4.8844   4.9693   5.0520   5.3370
     5.3945   5.3949   5.3972   5.6702   5.6824   5.7991   5.8675   5.8887
     5.9601   6.2905   6.2932   6.3069   6.3392   6.3507   6.4350   6.5025
     6.5966   6.7186   6.8049   6.9394   6.9495   7.1822   7.1892   7.2539
     7.3826   7.4541   7.4625   7.6109   7.6304   7.6606   7.6652   7.8932
     7.9652   8.1073   8.1574   8.2159   8.2633   8.2666   8.2841   8.2969
     8.3534   8.4087   8.4218   8.5108   8.5206   8.5807   8.6868   8.7864
     8.8273   8.9507   8.9849   9.0146   9.0159   9.1540

     occupation numbers 
     1.0000   1.0000   1.0000   1.0000   1.0000   1.0000   1.0000   1.0000
     1.0000   1.0000   1.0000   1.0000   1.0000   1.0000   1.0000   1.0000
     1.0000   1.0000   1.0000   1.0000   1.0000   1.0000   1.0000   1.0000
     1.0000   1.0000   1.0000   1.0000   1.0000   1.0000   1.0000   1.0000
     1.0000   1.0000   1.0000   1.0000   1.0000   1.0000   1.0000   1.0000
     1.0000   1.0000   1.0000   1.0000   1.0000   1.0000   1.0000   1.0000
     1.0000   1.0000   1.0000   1.0000   1.0000   1.0000   1.0000   1.0000
     1.0000   1.0000   1.0000   1.0000   1.0000   1.0000   1.0000   1.0000
     1.0000   1.0000   1.0000   1.0000   1.0000   1.0000   1.0000   1.0000
     1.0000   1.0000   1.0000   1.0000   1.0000   1.0000   1.0000   1.0000
     1.0000   1.0000   1.0000   1.0000   1.0000   1.0000   1.0000   1.0000
     1.0000   1.0000   1.0000   0.0000   0.0000   0.0000   0.0000   0.0000
     0.0000   0.0000   0.0000   0.0000   0.0000   0.0000   0.0000   0.0000
     0.0000   0.0000   0.0000   0.0000   0.0000   0.0000   0.0000   0.0000
     0.0000   0.0000   0.0000   0.0000   0.0000   0.0000   0.0000   0.0000
     0.0000   0.0000   0.0000   0.0000   0.0000   0.0000   0.0000   0.0000
     0.0000   0.0000   0.0000   0.0000   0.0000   0.0000   0.0000   0.0000
     0.0000   0.0000   0.0000   0.0000   0.0000   0.0000   0.0000   0.0000
     0.0000   0.0000   0.0000   0.0000   0.0000   0.0000   0.0000   0.0000
     0.0000   0.0000   0.0000   0.0000   0.0000   0.0000   0.0000   0.0000
     0.0000   0.0000   0.0000   0.0000   0.0000   0.0000   0.0000   0.0000
     0.0000   0.0000   0.0000   0.0000   0.0000   0.0000   0.0000   0.0000
     0.0000   0.0000   0.0000   0.0000   0.0000   0.0000

          k =-0.1260 0.6547 0.0000 ( 15279 PWs)   bands (ev):

   -74.1085 -74.0833 -74.0832 -74.0831 -74.0685 -74.0684 -74.0683 -40.4833
   -40.4832 -40.4832 -40.4172 -40.3861 -40.3189 -40.3187 -40.3187 -40.2962
   -40.2962 -40.2962 -40.2814 -40.2813 -40.2812 -40.2718 -40.2512 -40.2512
   -40.2512 -40.1878 -40.1878 -40.1877 -15.4060 -15.4059 -15.4059 -14.3625
   -14.3624 -14.3624 -14.0771 -14.0770 -14.0770 -13.8311 -13.8311 -13.8310
   -13.6851 -13.6080  -7.7169  -7.7169  -7.7169  -7.3758  -7.0974  -7.0973
    -7.0973  -6.8222  -6.7473  -6.7473  -6.7473  -6.0936  -5.9124  -5.9124
    -5.9124  -5.6910  -5.6910  -5.6910  -5.4222  -5.1659  -5.1659  -5.1659
    -4.9801  -4.9801  -4.9801  -4.8932  -4.1114  -4.1114  -4.1113  -4.0633
    -3.7222  -3.7222  -3.7222  -3.6145  -3.6145  -3.6145  -3.5377  -3.5377
    -3.5376  -3.0730  -3.0730  -3.0730  -2.3177  -2.3177  -2.3176  -2.3005
    -2.3005  -2.3005  -1.6046   0.5080   0.5678   0.5678   0.5678   1.0523
     1.0523   1.0523   1.1412   1.1412   1.1412   1.4195   1.4195   1.4196
     1.6312   1.7298   1.7298   1.7298   2.4083   2.4156   2.4156   2.4156
     2.4323   2.4324   2.4324   2.9651   2.9651   2.9652   4.0423   4.5857
     4.5858   4.5859   4.6705   4.6705   4.6707   4.6930   4.6930   4.6930
     5.0845   5.0845   5.0847   5.3417   5.6610   5.6612   5.6613   5.7269
     6.1384   6.1386   6.1386   6.4511   6.4511   6.4511   6.5673   6.5673
     6.5674   6.7730   6.7731   6.7731   7.2414   7.2415   7.2417   7.4724
     7.4725   7.4725   7.7688   7.7688   7.7688   7.8616   7.9307   7.9307
     7.9307   8.1911   8.1911   8.1912   8.2261   8.2263   8.2263   8.2703
     8.2704   8.2705   8.3991   8.3993   8.3993   8.6555   8.6556   8.6556
     8.9668   9.0039   9.0039   9.0040   9.2205   9.2205

     occupation numbers 
     1.0000   1.0000   1.0000   1.0000   1.0000   1.0000   1.0000   1.0000
     1.0000   1.0000   1.0000   1.0000   1.0000   1.0000   1.0000   1.0000
     1.0000   1.0000   1.0000   1.0000   1.0000   1.0000   1.0000   1.0000
     1.0000   1.0000   1.0000   1.0000   1.0000   1.0000   1.0000   1.0000
     1.0000   1.0000   1.0000   1.0000   1.0000   1.0000   1.0000   1.0000
     1.0000   1.0000   1.0000   1.0000   1.0000   1.0000   1.0000   1.0000
     1.0000   1.0000   1.0000   1.0000   1.0000   1.0000   1.0000   1.0000
     1.0000   1.0000   1.0000   1.0000   1.0000   1.0000   1.0000   1.0000
     1.0000   1.0000   1.0000   1.0000   1.0000   1.0000   1.0000   1.0000
     1.0000   1.0000   1.0000   1.0000   1.0000   1.0000   1.0000   1.0000
     1.0000   1.0000   1.0000   1.0000   1.0000   1.0000   1.0000   1.0000
     1.0000   1.0000   1.0000   0.0000   0.0000   0.0000   0.0000   0.0000
     0.0000   0.0000   0.0000   0.0000   0.0000   0.0000   0.0000   0.0000
     0.0000   0.0000   0.0000   0.0000   0.0000   0.0000   0.0000   0.0000
     0.0000   0.0000   0.0000   0.0000   0.0000   0.0000   0.0000   0.0000
     0.0000   0.0000   0.0000   0.0000   0.0000   0.0000   0.0000   0.0000
     0.0000   0.0000   0.0000   0.0000   0.0000   0.0000   0.0000   0.0000
     0.0000   0.0000   0.0000   0.0000   0.0000   0.0000   0.0000   0.0000
     0.0000   0.0000   0.0000   0.0000   0.0000   0.0000   0.0000   0.0000
     0.0000   0.0000   0.0000   0.0000   0.0000   0.0000   0.0000   0.0000
     0.0000   0.0000   0.0000   0.0000   0.0000   0.0000   0.0000   0.0000
     0.0000   0.0000   0.0000   0.0000   0.0000   0.0000   0.0000   0.0000
     0.0000   0.0000   0.0000   0.0000   0.0000   0.0000

          k = 0.7559 0.1455 0.0000 ( 15372 PWs)   bands (ev):

   -74.1308 -74.1253 -74.1231 -74.1143 -74.0874 -74.0807 -74.0796 -40.4989
   -40.4701 -40.4472 -40.4216 -40.4023 -40.3359 -40.3295 -40.3156 -40.3119
   -40.3062 -40.2963 -40.2960 -40.2815 -40.2786 -40.2762 -40.2412 -40.2397
   -40.2167 -40.2061 -40.2027 -40.1648 -15.8903 -15.1916 -14.6577 -14.6369
   -14.5585 -14.2789 -14.0650 -14.0548 -14.0489 -13.9389 -13.8379 -13.8300
   -13.7457 -13.7081  -7.8944  -7.5647  -7.4665  -7.2835  -7.2325  -7.1046
    -7.0401  -6.9890  -6.9497  -6.7736  -6.1388  -6.0041  -5.9828  -5.9812
    -5.9072  -5.8990  -5.8376  -5.6333  -5.3493  -5.1354  -5.0954  -5.0409
    -4.9843  -4.9149  -4.9012  -4.5869  -4.5755  -4.5569  -4.4517  -4.0367
    -3.8956  -3.8430  -3.8041  -3.6853  -3.6087  -3.5937  -3.5040  -3.1967
    -3.0514  -3.0292  -3.0053  -2.8870  -2.8421  -2.4631  -2.4389  -2.4181
    -2.0715  -1.9645  -1.9383   0.4494   0.4850   0.8525   0.8949   0.9557
     0.9816   1.0416   1.1043   1.2224   1.2311   1.3023   1.4362   1.4402
     1.6819   1.7024   1.7903   1.8397   1.9727   2.0041   2.0865   2.1014
     2.4894   2.7070   2.8894   2.9881   3.1197   3.4259   3.6050   3.9776
     4.0584   4.3287   4.4580   4.6856   4.8844   4.9693   5.0520   5.3370
     5.3945   5.3949   5.3972   5.6702   5.6824   5.7991   5.8675   5.8887
     5.9601   6.2905   6.2932   6.3069   6.3392   6.3507   6.4350   6.5025
     6.5966   6.7186   6.8049   6.9394   6.9495   7.1822   7.1892   7.2539
     7.3826   7.4541   7.4625   7.6109   7.6304   7.6606   7.6652   7.8932
     7.9652   8.1073   8.1574   8.2159   8.2633   8.2666   8.2841   8.2969
     8.3534   8.4087   8.4218   8.5108   8.5206   8.5807   8.6868   8.7864
     8.8273   8.9507   8.9849   9.0146   9.0159   9.1540

     occupation numbers 
     1.0000   1.0000   1.0000   1.0000   1.0000   1.0000   1.0000   1.0000
     1.0000   1.0000   1.0000   1.0000   1.0000   1.0000   1.0000   1.0000
     1.0000   1.0000   1.0000   1.0000   1.0000   1.0000   1.0000   1.0000
     1.0000   1.0000   1.0000   1.0000   1.0000   1.0000   1.0000   1.0000
     1.0000   1.0000   1.0000   1.0000   1.0000   1.0000   1.0000   1.0000
     1.0000   1.0000   1.0000   1.0000   1.0000   1.0000   1.0000   1.0000
     1.0000   1.0000   1.0000   1.0000   1.0000   1.0000   1.0000   1.0000
     1.0000   1.0000   1.0000   1.0000   1.0000   1.0000   1.0000   1.0000
     1.0000   1.0000   1.0000   1.0000   1.0000   1.0000   1.0000   1.0000
     1.0000   1.0000   1.0000   1.0000   1.0000   1.0000   1.0000   1.0000
     1.0000   1.0000   1.0000   1.0000   1.0000   1.0000   1.0000   1.0000
     1.0000   1.0000   1.0000   0.0000   0.0000   0.0000   0.0000   0.0000
     0.0000   0.0000   0.0000   0.0000   0.0000   0.0000   0.0000   0.0000
     0.0000   0.0000   0.0000   0.0000   0.0000   0.0000   0.0000   0.0000
     0.0000   0.0000   0.0000   0.0000   0.0000   0.0000   0.0000   0.0000
     0.0000   0.0000   0.0000   0.0000   0.0000   0.0000   0.0000   0.0000
     0.0000   0.0000   0.0000   0.0000   0.0000   0.0000   0.0000   0.0000
     0.0000   0.0000   0.0000   0.0000   0.0000   0.0000   0.0000   0.0000
     0.0000   0.0000   0.0000   0.0000   0.0000   0.0000   0.0000   0.0000
     0.0000   0.0000   0.0000   0.0000   0.0000   0.0000   0.0000   0.0000
     0.0000   0.0000   0.0000   0.0000   0.0000   0.0000   0.0000   0.0000
     0.0000   0.0000   0.0000   0.0000   0.0000   0.0000   0.0000   0.0000
     0.0000   0.0000   0.0000   0.0000   0.0000   0.0000

          k = 0.5040 0.4364 0.0000 ( 15279 PWs)   bands (ev):

   -74.1085 -74.0833 -74.0832 -74.0831 -74.0685 -74.0684 -74.0683 -40.4833
   -40.4832 -40.4832 -40.4172 -40.3861 -40.3189 -40.3187 -40.3187 -40.2962
   -40.2962 -40.2962 -40.2814 -40.2813 -40.2812 -40.2718 -40.2512 -40.2512
   -40.2512 -40.1878 -40.1878 -40.1877 -15.4060 -15.4059 -15.4059 -14.3625
   -14.3624 -14.3624 -14.0771 -14.0770 -14.0770 -13.8311 -13.8311 -13.8310
   -13.6851 -13.6080  -7.7169  -7.7169  -7.7169  -7.3758  -7.0974  -7.0973
    -7.0973  -6.8222  -6.7473  -6.7473  -6.7473  -6.0936  -5.9124  -5.9124
    -5.9124  -5.6910  -5.6910  -5.6910  -5.4222  -5.1659  -5.1659  -5.1659
    -4.9801  -4.9801  -4.9801  -4.8932  -4.1114  -4.1114  -4.1113  -4.0633
    -3.7222  -3.7222  -3.7222  -3.6145  -3.6145  -3.6145  -3.5377  -3.5377
    -3.5376  -3.0730  -3.0730  -3.0730  -2.3177  -2.3177  -2.3176  -2.3005
    -2.3005  -2.3005  -1.6046   0.5080   0.5678   0.5678   0.5678   1.0523
     1.0523   1.0523   1.1412   1.1412   1.1412   1.4195   1.4195   1.4196
     1.6312   1.7298   1.7298   1.7298   2.4083   2.4156   2.4156   2.4156
     2.4323   2.4324   2.4324   2.9651   2.9651   2.9652   4.0423   4.5857
     4.5858   4.5859   4.6705   4.6705   4.6707   4.6930   4.6930   4.6930
     5.0845   5.0845   5.0847   5.3417   5.6610   5.6612   5.6613   5.7269
     6.1384   6.1386   6.1386   6.4511   6.4511   6.4511   6.5673   6.5673
     6.5674   6.7730   6.7731   6.7731   7.2414   7.2415   7.2417   7.4724
     7.4725   7.4725   7.7688   7.7688   7.7688   7.8616   7.9307   7.9307
     7.9307   8.1911   8.1911   8.1912   8.2261   8.2263   8.2263   8.2703
     8.2704   8.2705   8.3991   8.3993   8.3993   8.6555   8.6556   8.6556
     8.9668   9.0039   9.0039   9.0040   9.2205   9.2205

     occupation numbers 
     1.0000   1.0000   1.0000   1.0000   1.0000   1.0000   1.0000   1.0000
     1.0000   1.0000   1.0000   1.0000   1.0000   1.0000   1.0000   1.0000
     1.0000   1.0000   1.0000   1.0000   1.0000   1.0000   1.0000   1.0000
     1.0000   1.0000   1.0000   1.0000   1.0000   1.0000   1.0000   1.0000
     1.0000   1.0000   1.0000   1.0000   1.0000   1.0000   1.0000   1.0000
     1.0000   1.0000   1.0000   1.0000   1.0000   1.0000   1.0000   1.0000
     1.0000   1.0000   1.0000   1.0000   1.0000   1.0000   1.0000   1.0000
     1.0000   1.0000   1.0000   1.0000   1.0000   1.0000   1.0000   1.0000
     1.0000   1.0000   1.0000   1.0000   1.0000   1.0000   1.0000   1.0000
     1.0000   1.0000   1.0000   1.0000   1.0000   1.0000   1.0000   1.0000
     1.0000   1.0000   1.0000   1.0000   1.0000   1.0000   1.0000   1.0000
     1.0000   1.0000   1.0000   0.0000   0.0000   0.0000   0.0000   0.0000
     0.0000   0.0000   0.0000   0.0000   0.0000   0.0000   0.0000   0.0000
     0.0000   0.0000   0.0000   0.0000   0.0000   0.0000   0.0000   0.0000
     0.0000   0.0000   0.0000   0.0000   0.0000   0.0000   0.0000   0.0000
     0.0000   0.0000   0.0000   0.0000   0.0000   0.0000   0.0000   0.0000
     0.0000   0.0000   0.0000   0.0000   0.0000   0.0000   0.0000   0.0000
     0.0000   0.0000   0.0000   0.0000   0.0000   0.0000   0.0000   0.0000
     0.0000   0.0000   0.0000   0.0000   0.0000   0.0000   0.0000   0.0000
     0.0000   0.0000   0.0000   0.0000   0.0000   0.0000   0.0000   0.0000
     0.0000   0.0000   0.0000   0.0000   0.0000   0.0000   0.0000   0.0000
     0.0000   0.0000   0.0000   0.0000   0.0000   0.0000   0.0000   0.0000
     0.0000   0.0000   0.0000   0.0000   0.0000   0.0000

          k = 0.2520 0.7274 0.0000 ( 15372 PWs)   bands (ev):

   -74.1308 -74.1253 -74.1231 -74.1143 -74.0874 -74.0807 -74.0796 -40.4989
   -40.4702 -40.4472 -40.4216 -40.4023 -40.3359 -40.3295 -40.3156 -40.3119
   -40.3062 -40.2963 -40.2959 -40.2815 -40.2786 -40.2762 -40.2412 -40.2397
   -40.2167 -40.2061 -40.2027 -40.1648 -15.8903 -15.1916 -14.6577 -14.6369
   -14.5585 -14.2789 -14.0650 -14.0548 -14.0489 -13.9389 -13.8379 -13.8300
   -13.7457 -13.7081  -7.8944  -7.5647  -7.4665  -7.2835  -7.2325  -7.1046
    -7.0401  -6.9890  -6.9497  -6.7736  -6.1388  -6.0041  -5.9828  -5.9812
    -5.9072  -5.8990  -5.8376  -5.6333  -5.3493  -5.1354  -5.0954  -5.0409
    -4.9843  -4.9149  -4.9012  -4.5869  -4.5755  -4.5569  -4.4517  -4.0367
    -3.8956  -3.8430  -3.8041  -3.6853  -3.6087  -3.5937  -3.5040  -3.1967
    -3.0514  -3.0292  -3.0053  -2.8870  -2.8421  -2.4631  -2.4389  -2.4181
    -2.0715  -1.9645  -1.9383   0.4494   0.4850   0.8525   0.8949   0.9557
     0.9816   1.0416   1.1043   1.2224   1.2311   1.3023   1.4362   1.4402
     1.6819   1.7024   1.7903   1.8397   1.9727   2.0041   2.0865   2.1014
     2.4894   2.7070   2.8894   2.9881   3.1197   3.4259   3.6050   3.9776
     4.0584   4.3287   4.4580   4.6856   4.8844   4.9693   5.0520   5.3370
     5.3945   5.3949   5.3972   5.6702   5.6824   5.7991   5.8675   5.8887
     5.9601   6.2905   6.2932   6.3069   6.3392   6.3507   6.4350   6.5025
     6.5966   6.7186   6.8049   6.9394   6.9495   7.1822   7.1892   7.2539
     7.3826   7.4541   7.4625   7.6109   7.6304   7.6606   7.6652   7.8932
     7.9652   8.1073   8.1574   8.2159   8.2633   8.2666   8.2841   8.2969
     8.3534   8.4087   8.4218   8.5108   8.5206   8.5807   8.6868   8.7864
     8.8273   8.9507   8.9849   9.0146   9.0159   9.1540

     occupation numbers 
     1.0000   1.0000   1.0000   1.0000   1.0000   1.0000   1.0000   1.0000
     1.0000   1.0000   1.0000   1.0000   1.0000   1.0000   1.0000   1.0000
     1.0000   1.0000   1.0000   1.0000   1.0000   1.0000   1.0000   1.0000
     1.0000   1.0000   1.0000   1.0000   1.0000   1.0000   1.0000   1.0000
     1.0000   1.0000   1.0000   1.0000   1.0000   1.0000   1.0000   1.0000
     1.0000   1.0000   1.0000   1.0000   1.0000   1.0000   1.0000   1.0000
     1.0000   1.0000   1.0000   1.0000   1.0000   1.0000   1.0000   1.0000
     1.0000   1.0000   1.0000   1.0000   1.0000   1.0000   1.0000   1.0000
     1.0000   1.0000   1.0000   1.0000   1.0000   1.0000   1.0000   1.0000
     1.0000   1.0000   1.0000   1.0000   1.0000   1.0000   1.0000   1.0000
     1.0000   1.0000   1.0000   1.0000   1.0000   1.0000   1.0000   1.0000
     1.0000   1.0000   1.0000   0.0000   0.0000   0.0000   0.0000   0.0000
     0.0000   0.0000   0.0000   0.0000   0.0000   0.0000   0.0000   0.0000
     0.0000   0.0000   0.0000   0.0000   0.0000   0.0000   0.0000   0.0000
     0.0000   0.0000   0.0000   0.0000   0.0000   0.0000   0.0000   0.0000
     0.0000   0.0000   0.0000   0.0000   0.0000   0.0000   0.0000   0.0000
     0.0000   0.0000   0.0000   0.0000   0.0000   0.0000   0.0000   0.0000
     0.0000   0.0000   0.0000   0.0000   0.0000   0.0000   0.0000   0.0000
     0.0000   0.0000   0.0000   0.0000   0.0000   0.0000   0.0000   0.0000
     0.0000   0.0000   0.0000   0.0000   0.0000   0.0000   0.0000   0.0000
     0.0000   0.0000   0.0000   0.0000   0.0000   0.0000   0.0000   0.0000
     0.0000   0.0000   0.0000   0.0000   0.0000   0.0000   0.0000   0.0000
     0.0000   0.0000   0.0000   0.0000   0.0000   0.0000

     highest occupied, lowest unoccupied level (ev):    -1.6046    0.4494

!    total energy              =   -1367.14303979 Ry
     estimated scf accuracy    <       0.00000083 Ry

     The total energy is the sum of the following terms:
     one-electron contribution =  -10806.22392968 Ry
     hartree contribution      =    5392.85437588 Ry
     xc contribution           =    -320.23296580 Ry
     ewald contribution        =    4366.45947982 Ry

     convergence has been achieved in   9 iterations

     Writing all to output data dir ./WS2.save/
 
     init_run     :      0.21s CPU      0.29s WALL (       1 calls)
     electrons    :      7.99s CPU      8.23s WALL (       1 calls)

     Called by init_run:
     wfcinit      :      0.10s CPU      0.13s WALL (       1 calls)
     wfcinit:atom :      0.00s CPU      0.00s WALL (       1 calls)
     wfcinit:wfcr :      0.10s CPU      0.12s WALL (       1 calls)
     potinit      :      0.03s CPU      0.05s WALL (       1 calls)
     hinit0       :      0.05s CPU      0.07s WALL (       1 calls)

     Called by electrons:
     c_bands      :      7.59s CPU      7.80s WALL (      10 calls)
     sum_band     :      0.30s CPU      0.31s WALL (      10 calls)
     v_of_rho     :      0.05s CPU      0.06s WALL (      10 calls)
     v_h          :      0.00s CPU      0.00s WALL (      10 calls)
     v_xc         :      0.05s CPU      0.06s WALL (      10 calls)
     mix_rho      :      0.02s CPU      0.02s WALL (      10 calls)

     Called by c_bands:
     init_us_2    :      0.06s CPU      0.07s WALL (      21 calls)
     init_us_2:cp :      0.06s CPU      0.07s WALL (      21 calls)
     cegterg      :      6.20s CPU      6.40s WALL (      10 calls)

     Called by sum_band:
     sum_band:wei :      0.00s CPU      0.00s WALL (      10 calls)
     sum_band:loo :      0.26s CPU      0.27s WALL (      10 calls)
     sum_band:buf :      0.00s CPU      0.00s WALL (      10 calls)
     sum_band:ini :      0.03s CPU      0.03s WALL (      10 calls)

     Called by *egterg:
     cdiaghg      :      3.03s CPU      3.13s WALL (      86 calls)
     cegterg:over :      0.55s CPU      0.56s WALL (      77 calls)
     cegterg:upda :      0.48s CPU      0.49s WALL (      77 calls)
     cegterg:last :      0.12s CPU      0.12s WALL (      10 calls)
     cdiaghg:chol :      0.27s CPU      0.28s WALL (      86 calls)
     cdiaghg:inve :      0.04s CPU      0.04s WALL (      86 calls)
     cdiaghg:para :      0.71s CPU      0.74s WALL (     172 calls)
     h_psi        :      2.02s CPU      2.08s WALL (      88 calls)
     g_psi        :      0.01s CPU      0.01s WALL (      77 calls)

     Called by h_psi:
     h_psi:calbec :      0.37s CPU      0.38s WALL (      88 calls)
     vloc_psi     :      1.25s CPU      1.30s WALL (      88 calls)
     add_vuspsi   :      0.38s CPU      0.38s WALL (      88 calls)

     General routines
     calbec       :      0.37s CPU      0.38s WALL (      88 calls)
     fft          :      0.04s CPU      0.05s WALL (     101 calls)
     ffts         :      0.00s CPU      0.01s WALL (      10 calls)
     fftw         :      1.32s CPU      1.37s WALL (   12392 calls)
 
     Parallel routines
 
     PWSCF        :      8.43s CPU      9.01s WALL

 
   This run was terminated on:  22:27:12  19Apr2023            

=------------------------------------------------------------------------------=
   JOB DONE.
=------------------------------------------------------------------------------=
TACC:  Shutdown complete. Exiting. 
