
     Program PWSCF v.7.1 starts on 26Apr2023 at  0:20: 7 

     This program is part of the open-source Quantum ESPRESSO suite
     for quantum simulation of materials; please cite
         "P. Giannozzi et al., J. Phys.:Condens. Matter 21 395502 (2009);
         "P. Giannozzi et al., J. Phys.:Condens. Matter 29 465901 (2017);
         "P. Giannozzi et al., J. Chem. Phys. 152 154105 (2020);
          URL http://www.quantum-espresso.org", 
     in publications or presentations arising from this work. More details at
     http://www.quantum-espresso.org/quote

     Parallel version (MPI & OpenMP), running on     252 processor cores
     Number of MPI processes:               126
     Threads/MPI process:                     2

     MPI processes distributed on     1 nodes
     482500 MiB available memory on the printing compute node when the environment starts

     Reading input from wfn.in

     Current dimensions of program PWSCF are:
     Max number of different atomic species (ntypx) = 10
     Max number of k-points (npk) =  40000
     Max angular momentum in pseudopotentials (lmaxx) =  4

     Atomic positions and unit cell read from directory:
     ./WS2.save/
     Atomic positions from file used, from input discarded


     K-points division:     npool     =       7
     R & G space division:  proc/nbgrp/npool/nimage =      18
     Subspace diagonalization in iterative solution of the eigenvalue problem:
     a serial algorithm will be used


     Parallelization info
     --------------------
     sticks:   dense  smooth     PW     G-vecs:    dense   smooth      PW
     Min          11      11      4                  973      973     224
     Max          12      12      5                  998      998     247
     Sum         199     199     73                17673    17673    4175

     Using Slab Decomposition



     bravais-lattice index     =            0
     lattice parameter (alat)  =       5.9526  a.u.
     unit-cell volume          =    1449.7341 (a.u.)^3
     number of atoms/cell      =            3
     number of atomic types    =            2
     number of electrons       =        26.00
     number of Kohn-Sham states=           20
     kinetic-energy cutoff     =      20.0000  Ry
     charge density cutoff     =      80.0000  Ry
     Exchange-correlation= PBE
                           (   1   4   3   4   0   0   0)

     celldm(1)=   5.952637  celldm(2)=   0.000000  celldm(3)=   0.000000
     celldm(4)=   0.000000  celldm(5)=   0.000000  celldm(6)=   0.000000

     crystal axes: (cart. coord. in units of alat)
               a(1) = (   1.000000   0.000000   0.000000 )  
               a(2) = (   0.500000   0.866025   0.000000 )  
               a(3) = (   0.000000   0.000000   7.936508 )  

     reciprocal axes: (cart. coord. in units 2 pi/alat)
               b(1) = (  1.000000 -0.577350  0.000000 )  
               b(2) = (  0.000000  1.154701  0.000000 )  
               b(3) = (  0.000000  0.000000  0.126000 )  


     PseudoPot. # 1 for W  read from file:
     /work2/08702/wkim94/frontera/pseudo/pseudodojo/nc-sr-04_pbe_standard_upf/W.upf
     MD5 check sum: cb94e439a9e4ea809831d6e90c63864e
     Pseudo is Norm-conserving + core correction, Zval = 14.0
     Generated using ONCVPSP code by D. R. Hamann
     Using radial grid of 1396 points,  8 beta functions with: 
                l(1) =   0
                l(2) =   0
                l(3) =   1
                l(4) =   1
                l(5) =   2
                l(6) =   2
                l(7) =   3
                l(8) =   3

     PseudoPot. # 2 for S  read from file:
     /work2/08702/wkim94/frontera/pseudo/pseudodojo/nc-sr-04_pbe_standard_upf/S.upf
     MD5 check sum: 6027e7704d67ae28863b2247926ce6f3
     Pseudo is Norm-conserving + core correction, Zval =  6.0
     Generated using ONCVPSP code by D. R. Hamann
     Using radial grid of 1146 points,  6 beta functions with: 
                l(1) =   0
                l(2) =   0
                l(3) =   1
                l(4) =   1
                l(5) =   2
                l(6) =   2

     atomic species   valence    mass     pseudopotential
        W             14.00   183.84000     W ( 1.00)
        S              6.00    78.96000     S ( 1.00)

     No symmetry found


                                    s                        frac. trans.

      isym =  1     identity                                     

 cryst.   s( 1) = (     1          0          0      )
                  (     0          1          0      )
                  (     0          0          1      )

 cart.    s( 1) = (  1.0000000  0.0000000  0.0000000 )
                  (  0.0000000  1.0000000  0.0000000 )
                  (  0.0000000  0.0000000  1.0000000 )


   Cartesian axes

     site n.     atom                  positions (alat units)
         1           W   tau(   1) = (   0.5000000   0.2886751   3.9682540  )
         2           S   tau(   2) = (   1.0000000   0.5773503   3.4603175  )
         3           S   tau(   3) = (   1.0000000   0.5773503   4.4761905  )

   Crystallographic axes

     site n.     atom                  positions (cryst. coord.)
         1           W   tau(   1) = (  0.3333333  0.3333333  0.5000000  )
         2           S   tau(   2) = (  0.6666667  0.6666667  0.4360000  )
         3           S   tau(   3) = (  0.6666667  0.6666667  0.5640000  )

     number of k points=    63
                       cart. coord. in units 2pi/alat
        k(    1) = (   0.0004286   0.0000825   0.0000000), wk =   0.0317460
        k(    2) = (   0.7147143  -0.2473534   0.0000000), wk =   0.0317460
        k(    3) = (   0.4290000   0.0825611   0.0000000), wk =   0.0317460
        k(    4) = (   0.1432857   0.4124755   0.0000000), wk =   0.0317460
        k(    5) = (   0.8575714   0.1650397   0.0000000), wk =   0.0317460
        k(    6) = (   0.5718571   0.4949541   0.0000000), wk =   0.0317460
        k(    7) = (   0.2861429   0.8248686   0.0000000), wk =   0.0317460
        k(    8) = (   0.9051905  -0.4672963   0.0000000), wk =   0.0317460
        k(    9) = (   0.6194762  -0.1373819   0.0000000), wk =   0.0317460
        k(   10) = (   0.3337619   0.1925326   0.0000000), wk =   0.0317460
        k(   11) = (   0.0480476   0.5224470   0.0000000), wk =   0.0317460
        k(   12) = (   0.7623333   0.2750112   0.0000000), wk =   0.0317460
        k(   13) = (   0.4766190   0.6049256   0.0000000), wk =   0.0317460
        k(   14) = (   0.1909048   0.9348401   0.0000000), wk =   0.0317460
        k(   15) = (   0.8099524  -0.3573248   0.0000000), wk =   0.0317460
        k(   16) = (   0.5242381  -0.0274104   0.0000000), wk =   0.0317460
        k(   17) = (   0.2385238   0.3025040   0.0000000), wk =   0.0317460
        k(   18) = (   0.9528095   0.0550682   0.0000000), wk =   0.0317460
        k(   19) = (   0.6670952   0.3849827   0.0000000), wk =   0.0317460
        k(   20) = (   0.3813810   0.7148971   0.0000000), wk =   0.0317460
        k(   21) = (   0.0956667   1.0448115   0.0000000), wk =   0.0317460
        k(   22) = (   0.1432857   0.0275753   0.0000000), wk =   0.0317460
        k(   23) = (   0.8575714  -0.2198605   0.0000000), wk =   0.0317460
        k(   24) = (   0.5718571   0.1100540   0.0000000), wk =   0.0317460
        k(   25) = (   0.2861429   0.4399684   0.0000000), wk =   0.0317460
        k(   26) = (   0.0004286   0.7698828   0.0000000), wk =   0.0317460
        k(   27) = (   0.7147143   0.5224470   0.0000000), wk =   0.0317460
        k(   28) = (   0.4290000   0.8523614   0.0000000), wk =   0.0317460
        k(   29) = (   0.3337619  -0.1923676   0.0000000), wk =   0.0317460
        k(   30) = (   0.0480476   0.1375468   0.0000000), wk =   0.0317460
        k(   31) = (   0.7623333  -0.1098890   0.0000000), wk =   0.0317460
        k(   32) = (   0.4766190   0.2200254   0.0000000), wk =   0.0317460
        k(   33) = (   0.1909048   0.5499399   0.0000000), wk =   0.0317460
        k(   34) = (   0.9051905   0.3025040   0.0000000), wk =   0.0317460
        k(   35) = (   0.6194762   0.6324185   0.0000000), wk =   0.0317460
        k(   36) = (   0.2385238  -0.0823961   0.0000000), wk =   0.0317460
        k(   37) = (   0.9528095  -0.3298320   0.0000000), wk =   0.0317460
        k(   38) = (   0.6670952   0.0000825   0.0000000), wk =   0.0317460
        k(   39) = (   0.3813810   0.3299969   0.0000000), wk =   0.0317460
        k(   40) = (   0.0956667   0.6599114   0.0000000), wk =   0.0317460
        k(   41) = (   0.8099524   0.4124755   0.0000000), wk =   0.0317460
        k(   42) = (   0.5242381   0.7423900   0.0000000), wk =   0.0317460
        k(   43) = (   0.5718571  -0.2748462   0.0000000), wk =   0.0317460
        k(   44) = (   0.2861429   0.0550682   0.0000000), wk =   0.0317460
        k(   45) = (   0.0004286   0.3849827   0.0000000), wk =   0.0317460
        k(   46) = (   0.7147143   0.1375468   0.0000000), wk =   0.0317460
        k(   47) = (   0.4290000   0.4674613   0.0000000), wk =   0.0317460
        k(   48) = (   0.1432857   0.7973757   0.0000000), wk =   0.0317460
        k(   49) = (   0.8575714   0.5499399   0.0000000), wk =   0.0317460
        k(   50) = (   0.4766190  -0.1648747   0.0000000), wk =   0.0317460
        k(   51) = (   0.1909048   0.1650397   0.0000000), wk =   0.0317460
        k(   52) = (   0.9051905  -0.0823961   0.0000000), wk =   0.0317460
        k(   53) = (   0.6194762   0.2475183   0.0000000), wk =   0.0317460
        k(   54) = (   0.3337619   0.5774327   0.0000000), wk =   0.0317460
        k(   55) = (   0.0480476   0.9073472   0.0000000), wk =   0.0317460
        k(   56) = (   0.7623333   0.6599114   0.0000000), wk =   0.0317460
        k(   57) = (   0.6670952  -0.3848177   0.0000000), wk =   0.0317460
        k(   58) = (   0.3813810  -0.0549033   0.0000000), wk =   0.0317460
        k(   59) = (   0.0956667   0.2750112   0.0000000), wk =   0.0317460
        k(   60) = (   0.8099524   0.0275753   0.0000000), wk =   0.0317460
        k(   61) = (   0.5242381   0.3574898   0.0000000), wk =   0.0317460
        k(   62) = (   0.2385238   0.6874042   0.0000000), wk =   0.0317460
        k(   63) = (   0.9528095   0.4399684   0.0000000), wk =   0.0317460

                       cryst. coord.
        k(    1) = (   0.0004286   0.0002857   0.0000000), wk =   0.0317460
        k(    2) = (   0.7147143   0.1431429   0.0000000), wk =   0.0317460
        k(    3) = (   0.4290000   0.2860000   0.0000000), wk =   0.0317460
        k(    4) = (   0.1432857   0.4288571   0.0000000), wk =   0.0317460
        k(    5) = (   0.8575714   0.5717143   0.0000000), wk =   0.0317460
        k(    6) = (   0.5718571   0.7145714   0.0000000), wk =   0.0317460
        k(    7) = (   0.2861429   0.8574286   0.0000000), wk =   0.0317460
        k(    8) = (   0.9051905   0.0479048   0.0000000), wk =   0.0317460
        k(    9) = (   0.6194762   0.1907619   0.0000000), wk =   0.0317460
        k(   10) = (   0.3337619   0.3336190   0.0000000), wk =   0.0317460
        k(   11) = (   0.0480476   0.4764762   0.0000000), wk =   0.0317460
        k(   12) = (   0.7623333   0.6193333   0.0000000), wk =   0.0317460
        k(   13) = (   0.4766190   0.7621905   0.0000000), wk =   0.0317460
        k(   14) = (   0.1909048   0.9050476   0.0000000), wk =   0.0317460
        k(   15) = (   0.8099524   0.0955238   0.0000000), wk =   0.0317460
        k(   16) = (   0.5242381   0.2383810   0.0000000), wk =   0.0317460
        k(   17) = (   0.2385238   0.3812381   0.0000000), wk =   0.0317460
        k(   18) = (   0.9528095   0.5240952   0.0000000), wk =   0.0317460
        k(   19) = (   0.6670952   0.6669524   0.0000000), wk =   0.0317460
        k(   20) = (   0.3813810   0.8098095   0.0000000), wk =   0.0317460
        k(   21) = (   0.0956667   0.9526667   0.0000000), wk =   0.0317460
        k(   22) = (   0.1432857   0.0955238   0.0000000), wk =   0.0317460
        k(   23) = (   0.8575714   0.2383810   0.0000000), wk =   0.0317460
        k(   24) = (   0.5718571   0.3812381   0.0000000), wk =   0.0317460
        k(   25) = (   0.2861429   0.5240952   0.0000000), wk =   0.0317460
        k(   26) = (   0.0004286   0.6669524   0.0000000), wk =   0.0317460
        k(   27) = (   0.7147143   0.8098095   0.0000000), wk =   0.0317460
        k(   28) = (   0.4290000   0.9526667   0.0000000), wk =   0.0317460
        k(   29) = (   0.3337619   0.0002857   0.0000000), wk =   0.0317460
        k(   30) = (   0.0480476   0.1431429   0.0000000), wk =   0.0317460
        k(   31) = (   0.7623333   0.2860000   0.0000000), wk =   0.0317460
        k(   32) = (   0.4766190   0.4288571   0.0000000), wk =   0.0317460
        k(   33) = (   0.1909048   0.5717143   0.0000000), wk =   0.0317460
        k(   34) = (   0.9051905   0.7145714   0.0000000), wk =   0.0317460
        k(   35) = (   0.6194762   0.8574286   0.0000000), wk =   0.0317460
        k(   36) = (   0.2385238   0.0479048   0.0000000), wk =   0.0317460
        k(   37) = (   0.9528095   0.1907619   0.0000000), wk =   0.0317460
        k(   38) = (   0.6670952   0.3336190   0.0000000), wk =   0.0317460
        k(   39) = (   0.3813810   0.4764762   0.0000000), wk =   0.0317460
        k(   40) = (   0.0956667   0.6193333   0.0000000), wk =   0.0317460
        k(   41) = (   0.8099524   0.7621905   0.0000000), wk =   0.0317460
        k(   42) = (   0.5242381   0.9050476   0.0000000), wk =   0.0317460
        k(   43) = (   0.5718571   0.0479048   0.0000000), wk =   0.0317460
        k(   44) = (   0.2861429   0.1907619   0.0000000), wk =   0.0317460
        k(   45) = (   0.0004286   0.3336190   0.0000000), wk =   0.0317460
        k(   46) = (   0.7147143   0.4764762   0.0000000), wk =   0.0317460
        k(   47) = (   0.4290000   0.6193333   0.0000000), wk =   0.0317460
        k(   48) = (   0.1432857   0.7621905   0.0000000), wk =   0.0317460
        k(   49) = (   0.8575714   0.9050476   0.0000000), wk =   0.0317460
        k(   50) = (   0.4766190   0.0955238   0.0000000), wk =   0.0317460
        k(   51) = (   0.1909048   0.2383810   0.0000000), wk =   0.0317460
        k(   52) = (   0.9051905   0.3812381   0.0000000), wk =   0.0317460
        k(   53) = (   0.6194762   0.5240952   0.0000000), wk =   0.0317460
        k(   54) = (   0.3337619   0.6669524   0.0000000), wk =   0.0317460
        k(   55) = (   0.0480476   0.8098095   0.0000000), wk =   0.0317460
        k(   56) = (   0.7623333   0.9526667   0.0000000), wk =   0.0317460
        k(   57) = (   0.6670952   0.0002857   0.0000000), wk =   0.0317460
        k(   58) = (   0.3813810   0.1431429   0.0000000), wk =   0.0317460
        k(   59) = (   0.0956667   0.2860000   0.0000000), wk =   0.0317460
        k(   60) = (   0.8099524   0.4288571   0.0000000), wk =   0.0317460
        k(   61) = (   0.5242381   0.5717143   0.0000000), wk =   0.0317460
        k(   62) = (   0.2385238   0.7145714   0.0000000), wk =   0.0317460
        k(   63) = (   0.9528095   0.8574286   0.0000000), wk =   0.0317460

     Dense  grid:    17673 G-vectors     FFT dimensions: (  18,  18, 135)

     Dynamical RAM for                 wfc:       0.04 MB

     Dynamical RAM for     wfc (w. buffer):       0.04 MB

     Dynamical RAM for           str. fact:       0.03 MB

     Dynamical RAM for           local pot:       0.00 MB

     Dynamical RAM for          nlocal pot:       0.13 MB

     Dynamical RAM for                qrad:       3.45 MB

     Dynamical RAM for          rho,v,vnew:       0.10 MB

     Dynamical RAM for           G-vectors:       0.06 MB

     Dynamical RAM for          h,s,v(r/c):       0.29 MB

     Dynamical RAM for          <psi|beta>:       0.02 MB

     Dynamical RAM for                 psi:       0.15 MB

     Dynamical RAM for                hpsi:       0.15 MB

     Dynamical RAM for      wfcinit/wfcrot:       0.08 MB

     Estimated static dynamical RAM per process >       3.96 MB

     Estimated max dynamical RAM per process >       4.57 MB

     Estimated total dynamical RAM >     575.20 MB

     The potential is recalculated from file :
     ./WS2.save/charge-density

     Starting wfcs are   18 randomized atomic wfcs +    2 random wfcs

     Band Structure Calculation
     Davidson diagonalization with overlap

     Computing kpt #:     1  of     9 on this pool
     total cpu time spent up to now is        0.5 secs

     Computing kpt #:     2  of     9 on this pool
     total cpu time spent up to now is        0.6 secs

     Computing kpt #:     3  of     9 on this pool
     total cpu time spent up to now is        0.7 secs

     Computing kpt #:     4  of     9 on this pool
     total cpu time spent up to now is        0.9 secs

     Computing kpt #:     5  of     9 on this pool
     total cpu time spent up to now is        1.0 secs

     Computing kpt #:     6  of     9 on this pool
     total cpu time spent up to now is        1.1 secs

     Computing kpt #:     7  of     9 on this pool
     total cpu time spent up to now is        1.2 secs

     Computing kpt #:     8  of     9 on this pool
     total cpu time spent up to now is        1.3 secs

     Computing kpt #:     9  of     9 on this pool
     total cpu time spent up to now is        1.4 secs

     ethr =  3.85E-09,  avg # of iterations = 19.2

     total cpu time spent up to now is        1.4 secs

     End of band structure calculation

          k = 0.0004 0.0001 0.0000 (  2245 PWs)   bands (ev):

   -74.1877 -40.3434 -40.1463 -40.1462 -16.1653 -14.6826  -7.8661  -4.3078
    -4.3078  -3.8520  -3.0409  -3.0409  -1.8458   1.3758   1.3758   1.4324
     1.4324   3.5816   3.7358   4.0647

          k = 0.7147-0.2474 0.0000 (  2191 PWs)   bands (ev):

   -74.0920 -40.4309 -40.2861 -40.2498 -14.3508 -13.9348  -7.2711  -6.4022
    -5.8151  -5.1134  -4.0242  -3.4067  -2.3854   0.6999   1.6202   1.9240
     3.1882   5.7222   6.1627   6.2608

          k = 0.4290 0.0826 0.0000 (  2191 PWs)   bands (ev):

   -74.0920 -40.4313 -40.2860 -40.2499 -14.3473 -13.9335  -7.2745  -6.4069
    -5.8147  -5.1129  -4.0241  -3.4097  -2.3842   0.7034   1.6221   1.9272
     3.1881   5.7146   6.1667   6.2663

          k = 0.1433 0.4125 0.0000 (  2191 PWs)   bands (ev):

   -74.0920 -40.4311 -40.2861 -40.2499 -14.3484 -13.9339  -7.2726  -6.4053
    -5.8145  -5.1138  -4.0261  -3.4082  -2.3844   0.7018   1.6219   1.9252
     3.1889   5.7185   6.1660   6.2649

          k = 0.8576 0.1650 0.0000 (  2191 PWs)   bands (ev):

   -74.0920 -40.4310 -40.2861 -40.2495 -14.3510 -13.9350  -7.2733  -6.4024
    -5.8163  -5.1112  -4.0183  -3.4083  -2.3861   0.7015   1.6189   1.9269
     3.1860   5.7182   6.1609   6.2595

          k = 0.5719 0.4950 0.0000 (  2191 PWs)   bands (ev):

   -74.0920 -40.4308 -40.2862 -40.2496 -14.3520 -13.9354  -7.2714  -6.4008
    -5.8160  -5.1122  -4.0203  -3.4068  -2.3863   0.6998   1.6187   1.9248
     3.1868   5.7221   6.1601   6.2581

          k = 0.2861 0.8249 0.0000 (  2191 PWs)   bands (ev):

   -74.0920 -40.4313 -40.2861 -40.2497 -14.3486 -13.9341  -7.2748  -6.4054
    -5.8156  -5.1116  -4.0202  -3.4098  -2.3851   0.7033   1.6206   1.9281
     3.1866   5.7144   6.1642   6.2635

          k = 0.9052-0.4673 0.0000 (  2203 PWs)   bands (ev):

   -74.1097 -40.3336 -40.2000 -40.1588 -15.8887 -14.5570  -7.5629  -4.8955
    -4.4481  -4.0333  -3.5004  -2.8846  -1.9352   0.8991   1.2253   1.2349
     1.8415   3.9754   4.0565   4.4567

          k = 0.6195-0.1374 0.0000 (  2206 PWs)   bands (ev):

   -74.1208 -40.4641 -40.3004 -40.2739 -13.8357 -13.7058  -7.4622  -7.1022
    -5.8344  -5.0388  -4.5877  -3.8413  -1.9599   0.9844   2.0051   2.0916
     3.4309   4.6909   6.9393   7.6109

          k = 0.3338 0.1925 0.0000 (  2186 PWs)   bands (ev):

   -74.0829 -40.4160 -40.2939 -40.2108 -14.6531 -14.0621  -7.2826  -6.1392
    -5.9784  -4.5555  -3.6082  -3.0248  -2.8387   0.9608   1.0471   2.1059
     2.8932   5.3967   5.6728   5.8677

          k = 0.0480 0.5224 0.0000 (  2208 PWs)   bands (ev):

   -74.1263 -40.4930 -40.2792 -40.2353 -14.0522 -13.8277  -7.8911  -6.7719
    -5.9799  -4.9128  -3.8023  -3.0525  -2.4129   1.3071   1.6871   2.4931
     2.9892   4.3319   6.2979   6.3430

          k = 0.7623 0.2750 0.0000 (  2182 PWs)   bands (ev):

   -74.0750 -40.3961 -40.2938 -40.2336 -14.6366 -14.0477  -7.0353  -5.9986
    -5.9054  -5.0932  -3.8923  -3.1935  -2.4594   0.4872   1.4396   1.7035
     3.1220   5.6794   5.7957   6.2898

          k = 0.4766 0.6049 0.0000 (  2204 PWs)   bands (ev):

   -74.1186 -40.4413 -40.3094 -40.2764 -13.9384 -13.7443  -7.2302  -6.9839
    -5.6309  -5.1341  -4.9785  -3.6820  -2.0689   0.8560   1.7935   1.9761
     3.6062   5.3986   6.5073   7.1860

          k = 0.1909 0.9348 0.0000 (  2183 PWs)   bands (ev):

   -74.0761 -40.3237 -40.3096 -40.1968 -15.1881 -14.2764  -6.9468  -5.8967
    -5.3493  -4.5724  -3.5894  -3.0054  -2.4365   0.4532   1.1082   1.4449
     2.7102   4.8849   4.9702   5.3985

          k = 0.8100-0.3573 0.0000 (  2183 PWs)   bands (ev):

   -74.0761 -40.3233 -40.3097 -40.1967 -15.1906 -14.2774  -6.9472  -5.8948
    -5.3445  -4.5733  -3.5914  -3.0020  -2.4344   0.4521   1.1082   1.4415
     2.7091   4.8819   4.9669   5.3951

          k = 0.5242-0.0274 0.0000 (  2204 PWs)   bands (ev):

   -74.1186 -40.4413 -40.3099 -40.2763 -13.9352 -13.7429  -7.2291  -6.9885
    -5.6310  -5.1325  -4.9847  -3.6854  -2.0653   0.8557   1.7926   1.9795
     3.6098   5.3951   6.5031   7.1937

          k = 0.2385 0.3025 0.0000 (  2182 PWs)   bands (ev):

   -74.0750 -40.3966 -40.2937 -40.2338 -14.6328 -14.0462  -7.0387  -6.0046
    -5.9041  -5.0927  -3.8930  -3.1968  -2.4591   0.4900   1.4416   1.7072
     3.1229   5.6845   5.8015   6.2918

          k = 0.9528 0.0551 0.0000 (  2208 PWs)   bands (ev):

   -74.1263 -40.4930 -40.2792 -40.2351 -14.0531 -13.8281  -7.8919  -6.7709
    -5.9803  -4.9115  -3.8027  -3.0452  -2.4167   1.3080   1.6848   2.4912
     2.9924   4.3316   6.2918   6.3393

          k = 0.6671 0.3850 0.0000 (  2186 PWs)   bands (ev):

   -74.0828 -40.4154 -40.2941 -40.2106 -14.6578 -14.0639  -7.2781  -6.1340
    -5.9791  -4.5526  -3.6062  -3.0275  -2.8380   0.9569   1.0457   2.1024
     2.8911   5.3955   5.6673   5.8699

          k = 0.3814 0.7149 0.0000 (  2206 PWs)   bands (ev):

   -74.1208 -40.4643 -40.3001 -40.2740 -13.8359 -13.7060  -7.4654  -7.1015
    -5.8354  -5.0386  -4.5813  -3.8414  -1.9606   0.9867   2.0084   2.0911
     3.4269   4.6856   6.9451   7.6131

          k = 0.0957 1.0448 0.0000 (  2203 PWs)   bands (ev):

   -74.1097 -40.3336 -40.2003 -40.1589 -15.8872 -14.5563  -7.5612  -4.8987
    -4.4511  -4.0318  -3.5019  -2.8854  -1.9362   0.8969   1.2255   1.2340
     1.8435   3.9774   4.0584   4.4587

          k = 0.1433 0.0276 0.0000 (  2203 PWs)   bands (ev):

   -74.1097 -40.3336 -40.2004 -40.1589 -15.8865 -14.5560  -7.5603  -4.9003
    -4.4522  -4.0312  -3.5039  -2.8848  -1.9366   0.8959   1.2252   1.2333
     1.8449   3.9784   4.0593   4.4597

          k = 0.8576-0.2199 0.0000 (  2182 PWs)   bands (ev):

   -74.0750 -40.3964 -40.2937 -40.2336 -14.6352 -14.0472  -7.0376  -6.0015
    -5.9052  -5.0912  -3.8902  -3.1959  -2.4598   0.4892   1.4397   1.7062
     3.1214   5.6809   5.7976   6.2895

          k = 0.5719 0.1101 0.0000 (  2206 PWs)   bands (ev):

   -74.1208 -40.4642 -40.3004 -40.2739 -13.8352 -13.7056  -7.4633  -7.1028
    -5.8351  -5.0383  -4.5861  -3.8421  -1.9593   0.9849   2.0061   2.0924
     3.4300   4.6876   6.9416   7.6148

          k = 0.2861 0.4400 0.0000 (  2204 PWs)   bands (ev):

   -74.1186 -40.4413 -40.3098 -40.2764 -13.9357 -13.7432  -7.2300  -6.9877
    -5.6318  -5.1327  -4.9818  -3.6850  -2.0659   0.8561   1.7933   1.9788
     3.6085   5.3939   6.5054   7.1924

          k = 0.0004 0.7699 0.0000 (  2186 PWs)   bands (ev):

   -74.0828 -40.4156 -40.2940 -40.2107 -14.6560 -14.0632  -7.2799  -6.1361
    -5.9788  -4.5538  -3.6070  -3.0265  -2.8383   0.9584   1.0463   2.1038
     2.8919   5.3960   5.6695   5.8690

          k = 0.7147 0.5224 0.0000 (  2183 PWs)   bands (ev):

   -74.0761 -40.3231 -40.3098 -40.1966 -15.1918 -14.2779  -6.9480  -5.8939
    -5.3440  -4.5699  -3.5907  -3.0028  -2.4341   0.4532   1.1074   1.4419
     2.7074   4.8800   4.9650   5.3932

          k = 0.4290 0.8524 0.0000 (  2208 PWs)   bands (ev):

   -74.1263 -40.4931 -40.2792 -40.2352 -14.0520 -13.8277  -7.8927  -6.7719
    -5.9805  -4.9120  -3.8030  -3.0460  -2.4154   1.3087   1.6865   2.4922
     2.9917   4.3288   6.2937   6.3412

          k = 0.3338-0.1924 0.0000 (  2186 PWs)   bands (ev):

   -74.0829 -40.4160 -40.2940 -40.2108 -14.6536 -14.0623  -7.2822  -6.1386
    -5.9785  -4.5552  -3.6080  -3.0251  -2.8387   0.9604   1.0470   2.1056
     2.8930   5.3966   5.6722   5.8679

          k = 0.0480 0.1375 0.0000 (  2203 PWs)   bands (ev):

   -74.1097 -40.3336 -40.2003 -40.1589 -15.8872 -14.5563  -7.5611  -4.8987
    -4.4508  -4.0319  -3.5031  -2.8844  -1.9362   0.8970   1.2250   1.2338
     1.8439   3.9774   4.0584   4.4587

          k = 0.7623-0.1099 0.0000 (  2204 PWs)   bands (ev):

   -74.1186 -40.4413 -40.3095 -40.2764 -13.9373 -13.7439  -7.2306  -6.9854
    -5.6317  -5.1335  -4.9787  -3.6833  -2.0677   0.8563   1.7938   1.9771
     3.6067   5.3956   6.5076   7.1886

          k = 0.4766 0.2200 0.0000 (  2208 PWs)   bands (ev):

   -74.1263 -40.4931 -40.2792 -40.2353 -14.0516 -13.8275  -7.8924  -6.7724
    -5.9802  -4.9126  -3.8028  -3.0497  -2.4135   1.3083   1.6876   2.4931
     2.9901   4.3289   6.2968   6.3431

          k = 0.1909 0.5499 0.0000 (  2206 PWs)   bands (ev):

   -74.1208 -40.4641 -40.3005 -40.2739 -13.8351 -13.7055  -7.4617  -7.1032
    -5.8346  -5.0384  -4.5893  -3.8420  -1.9590   0.9838   2.0045   2.0927
     3.4320   4.6902   6.9387   7.6137

          k = 0.9052 0.3025 0.0000 (  2183 PWs)   bands (ev):

   -74.0761 -40.3233 -40.3097 -40.1966 -15.1906 -14.2774  -6.9478  -5.8949
    -5.3464  -4.5694  -3.5897  -3.0045  -2.4352   0.4537   1.1074   1.4435
     2.7079   4.8816   4.9667   5.3949

          k = 0.6195 0.6324 0.0000 (  2182 PWs)   bands (ev):

   -74.0750 -40.3961 -40.2938 -40.2335 -14.6372 -14.0480  -7.0358  -5.9986
    -5.9059  -5.0915  -3.8899  -3.1942  -2.4599   0.4878   1.4386   1.7044
     3.1209   5.6783   5.7946   6.2883

          k = 0.2385-0.0824 0.0000 (  2177 PWs)   bands (ev):

   -74.0639 -40.3164 -40.2906 -40.1819 -15.4016 -14.3597  -7.0932  -5.6899
    -5.1659  -4.1120  -3.6096  -3.0714  -2.3161   0.5702   1.0560   1.4232
     2.4375   4.5874   4.6723   5.0870

          k = 0.9528-0.3298 0.0000 (  2177 PWs)   bands (ev):

   -74.0639 -40.3165 -40.2903 -40.1818 -15.4036 -14.3605  -7.0948  -5.6875
    -5.1643  -4.1065  -3.6102  -3.0731  -2.3148   0.5716   1.0559   1.4236
     2.4344   4.5846   4.6696   5.0841

          k = 0.6671 0.0001 0.0000 (  2196 PWs)   bands (ev):

   -74.1040 -40.4113 -40.3801 -40.2696 -13.6832 -13.6056  -7.3730  -6.8199
    -6.0906  -5.4199  -4.8913  -4.0616  -1.5997   0.5117   1.6338   2.4127
     4.0454   5.3438   5.7301   7.8628

          k = 0.3814 0.3300 0.0000 (  2184 PWs)   bands (ev):

   -74.0787 -40.4775 -40.2791 -40.2452 -14.0737 -13.8285  -7.7157  -6.7461
    -5.9103  -4.9773  -3.7216  -3.5331  -2.2964   1.1474   1.7353   2.4204
     2.9668   4.6915   6.4542   6.5698

          k = 0.0957 0.6599 0.0000 (  2184 PWs)   bands (ev):

   -74.0787 -40.4772 -40.2791 -40.2454 -14.0746 -13.8288  -7.7127  -6.7453
    -5.9093  -4.9785  -3.7200  -3.5396  -2.2959   1.1444   1.7355   2.4169
     2.9687   4.6979   6.4546   6.5716

          k = 0.8100 0.4125 0.0000 (  2177 PWs)   bands (ev):

   -74.0639 -40.3166 -40.2899 -40.1817 -15.4056 -14.3613  -7.0961  -5.6849
    -5.1607  -4.1073  -3.6124  -3.0696  -2.3126   0.5710   1.0565   1.4208
     2.4334   4.5823   4.6670   5.0815

          k = 0.5242 0.7424 0.0000 (  2184 PWs)   bands (ev):

   -74.0787 -40.4772 -40.2791 -40.2451 -14.0763 -13.8295  -7.7136  -6.7433
    -5.9099  -4.9769  -3.7202  -3.5324  -2.2984   1.1448   1.7327   2.4178
     2.9681   4.6983   6.4493   6.5646

          k = 0.5719-0.2748 0.0000 (  2208 PWs)   bands (ev):

   -74.1263 -40.4929 -40.2792 -40.2353 -14.0532 -13.8281  -7.8903  -6.7709
    -5.9797  -4.9123  -3.8020  -3.0517  -2.4142   1.3063   1.6854   2.4921
     2.9898   4.3347   6.2960   6.3411

          k = 0.2861 0.0551 0.0000 (  2183 PWs)   bands (ev):

   -74.0761 -40.3239 -40.3096 -40.1969 -15.1868 -14.2759  -6.9460  -5.8975
    -5.3498  -4.5758  -3.5901  -3.0045  -2.4367   0.4522   1.1090   1.4445
     2.7120   4.8868   4.9720   5.4005

          k = 0.0004 0.3850 0.0000 (  2186 PWs)   bands (ev):

   -74.0828 -40.4158 -40.2940 -40.2107 -14.6550 -14.0628  -7.2808  -6.1371
    -5.9787  -4.5543  -3.6074  -3.0259  -2.8384   0.9592   1.0466   2.1045
     2.8924   5.3963   5.6706   5.8686

          k = 0.7147 0.1375 0.0000 (  2204 PWs)   bands (ev):

   -74.1186 -40.4412 -40.3096 -40.2764 -13.9378 -13.7440  -7.2294  -6.9848
    -5.6301  -5.1340  -4.9813  -3.6824  -2.0682   0.8556   1.7928   1.9768
     3.6075   5.3999   6.5049   7.1873

          k = 0.4290 0.4675 0.0000 (  2206 PWs)   bands (ev):

   -74.1208 -40.4642 -40.3002 -40.2740 -13.8365 -13.7062  -7.4643  -7.1010
    -5.8347  -5.0390  -4.5829  -3.8407  -1.9612   0.9861   2.0073   2.0903
     3.4279   4.6889   6.9428   7.6092

          k = 0.1433 0.7974 0.0000 (  2182 PWs)   bands (ev):

   -74.0750 -40.3963 -40.2937 -40.2338 -14.6342 -14.0467  -7.0365  -6.0017
    -5.9043  -5.0947  -3.8951  -3.1944  -2.4587   0.4880   1.4415   1.7044
     3.1235   5.6830   5.7997   6.2924

          k = 0.8576 0.5499 0.0000 (  2203 PWs)   bands (ev):

   -74.1097 -40.3337 -40.1998 -40.1587 -15.8895 -14.5573  -7.5637  -4.8940
    -4.4470  -4.0339  -3.4985  -2.8852  -1.9348   0.9002   1.2256   1.2355
     1.8401   3.9744   4.0555   4.4557

          k = 0.4766-0.1649 0.0000 (  2184 PWs)   bands (ev):

   -74.0787 -40.4774 -40.2791 -40.2454 -14.0735 -13.8284  -7.7144  -6.7465
    -5.9097  -4.9782  -3.7210  -3.5376  -2.2954   1.1463   1.7363   2.4189
     2.9676   4.6935   6.4561   6.5728

          k = 0.1909 0.1650 0.0000 (  2177 PWs)   bands (ev):

   -74.0639 -40.3164 -40.2906 -40.1819 -15.4016 -14.3597  -7.0933  -5.6900
    -5.1665  -4.1099  -3.6091  -3.0731  -2.3164   0.5709   1.0557   1.4243
     2.4368   4.5873   4.6723   5.0869

          k = 0.9052-0.0824 0.0000 (  2184 PWs)   bands (ev):

   -74.0787 -40.4774 -40.2791 -40.2451 -14.0751 -13.8291  -7.7154  -6.7446
    -5.9104  -4.9766  -3.7212  -3.5305  -2.2979   1.1466   1.7335   2.4198
     2.9671   4.6938   6.4508   6.5657

          k = 0.6195 0.2475 0.0000 (  2184 PWs)   bands (ev):

   -74.0787 -40.4771 -40.2791 -40.2453 -14.0761 -13.8294  -7.7123  -6.7437
    -5.9094  -4.9778  -3.7196  -3.5369  -2.2974   1.1437   1.7337   2.4163
     2.9689   4.7003   6.4512   6.5676

          k = 0.3338 0.5774 0.0000 (  2196 PWs)   bands (ev):

   -74.1040 -40.4113 -40.3801 -40.2696 -13.6832 -13.6056  -7.3730  -6.8199
    -6.0906  -5.4199  -4.8913  -4.0616  -1.5997   0.5117   1.6338   2.4127
     4.0454   5.3438   5.7301   7.8628

          k = 0.0480 0.9073 0.0000 (  2177 PWs)   bands (ev):

   -74.0639 -40.3165 -40.2902 -40.1818 -15.4036 -14.3605  -7.0945  -5.6874
    -5.1629  -4.1107  -3.6113  -3.0697  -2.3142   0.5703   1.0564   1.4215
     2.4358   4.5849   4.6697   5.0843

          k = 0.7623 0.6599 0.0000 (  2177 PWs)   bands (ev):

   -74.0639 -40.3166 -40.2899 -40.1817 -15.4056 -14.3613  -7.0962  -5.6850
    -5.1613  -4.1052  -3.6119  -3.0713  -2.3129   0.5716   1.0562   1.4218
     2.4327   4.5821   4.6670   5.0815

          k = 0.6671-0.3848 0.0000 (  2186 PWs)   bands (ev):

   -74.0828 -40.4154 -40.2941 -40.2106 -14.6574 -14.0637  -7.2786  -6.1345
    -5.9790  -4.5529  -3.6064  -3.0273  -2.8381   0.9573   1.0459   2.1028
     2.8913   5.3956   5.6679   5.8697

          k = 0.3814-0.0549 0.0000 (  2182 PWs)   bands (ev):

   -74.0750 -40.3966 -40.2936 -40.2339 -14.6323 -14.0459  -7.0382  -6.0047
    -5.9036  -5.0944  -3.8955  -3.1961  -2.4586   0.4894   1.4426   1.7062
     3.1240   5.6856   5.8026   6.2933

          k = 0.0957 0.2750 0.0000 (  2183 PWs)   bands (ev):

   -74.0761 -40.3237 -40.3096 -40.1969 -15.1881 -14.2764  -6.9462  -5.8966
    -5.3474  -4.5763  -3.5911  -3.0029  -2.4357   0.4517   1.1090   1.4429
     2.7114   4.8853   4.9703   5.3987

          k = 0.8100 0.0276 0.0000 (  2206 PWs)   bands (ev):

   -74.1208 -40.4644 -40.3000 -40.2740 -13.8366 -13.7063  -7.4659  -7.1006
    -5.8352  -5.0389  -4.5797  -3.8408  -1.9615   0.9872   2.0090   2.0900
     3.4259   4.6863   6.9457   7.6103

          k = 0.5242 0.3575 0.0000 (  2208 PWs)   bands (ev):

   -74.1263 -40.4929 -40.2793 -40.2352 -14.0537 -13.8283  -7.8907  -6.7703
    -5.9799  -4.9116  -3.8022  -3.0481  -2.4161   1.3068   1.6843   2.4912
     2.9915   4.3346   6.2930   6.3392

          k = 0.2385 0.6874 0.0000 (  2204 PWs)   bands (ev):

   -74.1186 -40.4412 -40.3098 -40.2764 -13.9362 -13.7433  -7.2288  -6.9871
    -5.6302  -5.1332  -4.9845  -3.6842  -2.0664   0.8555   1.7923   1.9785
     3.6093   5.3981   6.5028   7.1911

          k = 0.9528 0.4400 0.0000 (  2203 PWs)   bands (ev):

   -74.1097 -40.3336 -40.2000 -40.1588 -15.8887 -14.5569  -7.5629  -4.8956
    -4.4484  -4.0332  -3.4992  -2.8856  -1.9353   0.8991   1.2258   1.2350
     1.8411   3.9754   4.0565   4.4567

     Writing all to output data dir ./WS2.save/

     init_run     :      0.21s CPU      0.20s WALL (       1 calls)
     electrons    :      1.68s CPU      1.01s WALL (       1 calls)

     Called by init_run:
     wfcinit      :      0.01s CPU      0.01s WALL (       1 calls)
     wfcinit:atom :      0.00s CPU      0.00s WALL (       9 calls)
     wfcinit:wfcr :      0.09s CPU      0.06s WALL (       9 calls)
     potinit      :      0.01s CPU      0.01s WALL (       1 calls)
     hinit0       :      0.18s CPU      0.17s WALL (       1 calls)

     Called by electrons:
     c_bands      :      1.68s CPU      1.01s WALL (       1 calls)
     v_of_rho     :      0.00s CPU      0.00s WALL (       1 calls)
     v_h          :      0.00s CPU      0.00s WALL (       1 calls)
     v_xc         :      0.00s CPU      0.00s WALL (       1 calls)

     Called by c_bands:
     init_us_2    :      0.00s CPU      0.00s WALL (       9 calls)
     init_us_2:cp :      0.00s CPU      0.00s WALL (       9 calls)
     cegterg      :      1.42s CPU      0.77s WALL (       9 calls)

     Called by sum_band:

     Called by *egterg:
     cdiaghg      :      0.49s CPU      0.25s WALL (     180 calls)
     cegterg:over :      0.12s CPU      0.07s WALL (     171 calls)
     cegterg:upda :      0.05s CPU      0.02s WALL (     171 calls)
     cegterg:last :      0.02s CPU      0.01s WALL (      28 calls)
     h_psi        :      0.77s CPU      0.44s WALL (     189 calls)
     g_psi        :      0.00s CPU      0.00s WALL (     171 calls)

     Called by h_psi:
     h_psi:calbec :      0.09s CPU      0.05s WALL (     189 calls)
     vloc_psi     :      0.61s CPU      0.36s WALL (     189 calls)
     add_vuspsi   :      0.07s CPU      0.03s WALL (     189 calls)

     General routines
     calbec       :      0.09s CPU      0.05s WALL (     189 calls)
     fft          :      0.16s CPU      0.15s WALL (      11 calls)
     fftw         :      0.59s CPU      0.35s WALL (    3764 calls)
     davcio       :      0.00s CPU      0.00s WALL (      18 calls)

     Parallel routines

     PWSCF        :      2.17s CPU      1.56s WALL


   This run was terminated on:   0:20: 9  26Apr2023            

=------------------------------------------------------------------------------=
   JOB DONE.
=------------------------------------------------------------------------------=
Note: The following floating-point exceptions are signalling: IEEE_DENORMAL
Note: The following floating-point exceptions are signalling: IEEE_DENORMAL
Note: The following floating-point exceptions are signalling: IEEE_DENORMAL
Note: The following floating-point exceptions are signalling: IEEE_DENORMAL
Note: The following floating-point exceptions are signalling: IEEE_DENORMAL
Note: The following floating-point exceptions are signalling: IEEE_DENORMAL
Note: The following floating-point exceptions are signalling: IEEE_DENORMAL
Note: The following floating-point exceptions are signalling: IEEE_DENORMAL
Note: The following floating-point exceptions are signalling: IEEE_DENORMAL
Note: The following floating-point exceptions are signalling: IEEE_DENORMAL
Note: The following floating-point exceptions are signalling: IEEE_DENORMAL
Note: The following floating-point exceptions are signalling: IEEE_DENORMAL
Note: The following floating-point exceptions are signalling: IEEE_DENORMAL
Note: The following floating-point exceptions are signalling: IEEE_DENORMAL
Note: The following floating-point exceptions are signalling: IEEE_DENORMAL
Note: The following floating-point exceptions are signalling: IEEE_DENORMAL
Note: The following floating-point exceptions are signalling: IEEE_DENORMAL
Note: The following floating-point exceptions are signalling: IEEE_DENORMAL
Note: The following floating-point exceptions are signalling: IEEE_DENORMAL
Note: The following floating-point exceptions are signalling: IEEE_DENORMAL
Note: The following floating-point exceptions are signalling: IEEE_DENORMAL
Note: The following floating-point exceptions are signalling: IEEE_DENORMAL
Note: The following floating-point exceptions are signalling: IEEE_DENORMAL
Note: The following floating-point exceptions are signalling: IEEE_DENORMAL
Note: The following floating-point exceptions are signalling: IEEE_DENORMAL
Note: The following floating-point exceptions are signalling: IEEE_DENORMAL
Note: The following floating-point exceptions are signalling: IEEE_DENORMAL
Note: The following floating-point exceptions are signalling: IEEE_DENORMAL
Note: The following floating-point exceptions are signalling: IEEE_DENORMAL
Note: The following floating-point exceptions are signalling: IEEE_DENORMAL
Note: The following floating-point exceptions are signalling: IEEE_DENORMAL
Note: The following floating-point exceptions are signalling: IEEE_DENORMAL
Note: The following floating-point exceptions are signalling: IEEE_DENORMAL
Note: The following floating-point exceptions are signalling: IEEE_DENORMAL
Note: The following floating-point exceptions are signalling: IEEE_DENORMAL
Note: The following floating-point exceptions are signalling: IEEE_DENORMAL
Note: The following floating-point exceptions are signalling: IEEE_DENORMAL
Note: The following floating-point exceptions are signalling: IEEE_DENORMAL
Note: The following floating-point exceptions are signalling: IEEE_DENORMAL
Note: The following floating-point exceptions are signalling: IEEE_DENORMAL
Note: The following floating-point exceptions are signalling: IEEE_DENORMAL
Note: The following floating-point exceptions are signalling: IEEE_DENORMAL
Note: The following floating-point exceptions are signalling: IEEE_DENORMAL
Note: The following floating-point exceptions are signalling: IEEE_DENORMAL
Note: The following floating-point exceptions are signalling: IEEE_DENORMAL
Note: The following floating-point exceptions are signalling: IEEE_DENORMAL
Note: The following floating-point exceptions are signalling: IEEE_DENORMAL
Note: The following floating-point exceptions are signalling: IEEE_DENORMAL
Note: The following floating-point exceptions are signalling: IEEE_DENORMAL
Note: The following floating-point exceptions are signalling: IEEE_DENORMAL
Note: The following floating-point exceptions are signalling: IEEE_DENORMAL
Note: The following floating-point exceptions are signalling: IEEE_DENORMAL
Note: The following floating-point exceptions are signalling: IEEE_DENORMAL
Note: The following floating-point exceptions are signalling: IEEE_DENORMAL
Note: The following floating-point exceptions are signalling: IEEE_DENORMAL
Note: The following floating-point exceptions are signalling: IEEE_DENORMAL
Note: The following floating-point exceptions are signalling: IEEE_DENORMAL
Note: The following floating-point exceptions are signalling: IEEE_DENORMAL
Note: The following floating-point exceptions are signalling: IEEE_DENORMAL
Note: The following floating-point exceptions are signalling: IEEE_DENORMAL
Note: The following floating-point exceptions are signalling: IEEE_DENORMAL
Note: The following floating-point exceptions are signalling: IEEE_DENORMAL
Note: The following floating-point exceptions are signalling: IEEE_DENORMAL
Note: The following floating-point exceptions are signalling: IEEE_DENORMAL
Note: The following floating-point exceptions are signalling: IEEE_DENORMAL
Note: The following floating-point exceptions are signalling: IEEE_DENORMAL
Note: The following floating-point exceptions are signalling: IEEE_DENORMAL
Note: The following floating-point exceptions are signalling: IEEE_DENORMAL
Note: The following floating-point exceptions are signalling: IEEE_DENORMAL
Note: The following floating-point exceptions are signalling: IEEE_DENORMAL
Note: The following floating-point exceptions are signalling: IEEE_DENORMAL
Note: The following floating-point exceptions are signalling: IEEE_DENORMAL
Note: The following floating-point exceptions are signalling: IEEE_DENORMAL
Note: The following floating-point exceptions are signalling: IEEE_DENORMAL
Note: The following floating-point exceptions are signalling: IEEE_DENORMAL
Note: The following floating-point exceptions are signalling: IEEE_DENORMAL
Note: The following floating-point exceptions are signalling: IEEE_DENORMAL
Note: The following floating-point exceptions are signalling: IEEE_DENORMAL
Note: The following floating-point exceptions are signalling: IEEE_DENORMAL
Note: The following floating-point exceptions are signalling: IEEE_DENORMAL
Note: The following floating-point exceptions are signalling: IEEE_DENORMAL
Note: The following floating-point exceptions are signalling: IEEE_DENORMAL
Note: The following floating-point exceptions are signalling: IEEE_DENORMAL
Note: The following floating-point exceptions are signalling: IEEE_DENORMAL
Note: The following floating-point exceptions are signalling: IEEE_DENORMAL
Note: The following floating-point exceptions are signalling: IEEE_DENORMAL
Note: The following floating-point exceptions are signalling: IEEE_DENORMAL
Note: The following floating-point exceptions are signalling: IEEE_DENORMAL
Note: The following floating-point exceptions are signalling: IEEE_DENORMAL
Note: The following floating-point exceptions are signalling: IEEE_DENORMAL
Note: The following floating-point exceptions are signalling: IEEE_DENORMAL
Note: The following floating-point exceptions are signalling: IEEE_DENORMAL
Note: The following floating-point exceptions are signalling: IEEE_DENORMAL
Note: The following floating-point exceptions are signalling: IEEE_DENORMAL
Note: The following floating-point exceptions are signalling: IEEE_DENORMAL
Note: The following floating-point exceptions are signalling: IEEE_DENORMAL
Note: The following floating-point exceptions are signalling: IEEE_DENORMAL
Note: The following floating-point exceptions are signalling: IEEE_DENORMAL
Note: The following floating-point exceptions are signalling: IEEE_DENORMAL
Note: The following floating-point exceptions are signalling: IEEE_DENORMAL
Note: The following floating-point exceptions are signalling: IEEE_DENORMAL
Note: The following floating-point exceptions are signalling: IEEE_DENORMAL
Note: The following floating-point exceptions are signalling: IEEE_DENORMAL
Note: The following floating-point exceptions are signalling: IEEE_DENORMAL
Note: The following floating-point exceptions are signalling: IEEE_DENORMAL
Note: The following floating-point exceptions are signalling: IEEE_DENORMAL
Note: The following floating-point exceptions are signalling: IEEE_DENORMAL
Note: The following floating-point exceptions are signalling: IEEE_DENORMAL
Note: The following floating-point exceptions are signalling: IEEE_DENORMAL
Note: The following floating-point exceptions are signalling: IEEE_DENORMAL
Note: The following floating-point exceptions are signalling: IEEE_DENORMAL
Note: The following floating-point exceptions are signalling: IEEE_DENORMAL
Note: The following floating-point exceptions are signalling: IEEE_DENORMAL
Note: The following floating-point exceptions are signalling: IEEE_DENORMAL
Note: The following floating-point exceptions are signalling: IEEE_DENORMAL
Note: The following floating-point exceptions are signalling: IEEE_DENORMAL
Note: The following floating-point exceptions are signalling: IEEE_DENORMAL
Note: The following floating-point exceptions are signalling: IEEE_DENORMAL
Note: The following floating-point exceptions are signalling: IEEE_DENORMAL
Note: The following floating-point exceptions are signalling: IEEE_DENORMAL
Note: The following floating-point exceptions are signalling: IEEE_DENORMAL
Note: The following floating-point exceptions are signalling: IEEE_DENORMAL
Note: The following floating-point exceptions are signalling: IEEE_DENORMAL
Note: The following floating-point exceptions are signalling: IEEE_DENORMAL
Note: The following floating-point exceptions are signalling: IEEE_DENORMAL
Note: The following floating-point exceptions are signalling: IEEE_DENORMAL
